x,y,z,alpha.water
0.15,4.1359e-25,-0.125,1
0.15,-8.27181e-25,-0.125,1
0.15,1.15867e-20,-0.120833,1
0.15,2.31743e-20,-0.116667,1
0.15,2.31776e-20,-0.1125,1
0.15,2.31809e-20,-0.108333,1.00001
0.15,2.31784e-20,-0.104166,1.00001
0.15,2.31759e-20,-0.1,1.00001
0.15,2.31759e-20,-0.0958333,1.00001
0.15,2.31759e-20,-0.0916667,1.00001
0.15,2.31759e-20,-0.0875,1.00001
0.15,2.31759e-20,-0.0833333,1.00001
0.15,2.31725e-20,-0.08125,1.00001
0.15,2.3169e-20,-0.0791667,1.00001
0.15,2.31695e-20,-0.0781249,1.00001
0.15,2.31701e-20,-0.0770831,1.00001
0.15,2.31705e-20,-0.0760416,1.00001
0.15,2.3171e-20,-0.075,1.00001
0.15,2.31705e-20,-0.0739583,1.00001
0.15,2.31699e-20,-0.0729166,1.00001
0.15,2.31709e-20,-0.0718749,1.00001
0.15,2.31718e-20,-0.0708333,1.00001
0.15,2.31711e-20,-0.0697916,1.00001
0.15,2.31704e-20,-0.0687499,1.00001
0.15,2.31707e-20,-0.0677083,1.00001
0.15,2.3171e-20,-0.0666667,1.00001
0.15,2.31704e-20,-0.065625,1.00001
0.15,2.31699e-20,-0.0645833,1.00001
0.15,2.31696e-20,-0.0635416,1.00001
0.15,2.31693e-20,-0.0625,1.00001
0.15,2.31697e-20,-0.0614583,1.00001
0.15,2.31701e-20,-0.0604166,1.00001
0.15,2.3171e-20,-0.059375,1.00001
0.15,2.31718e-20,-0.0583333,1.00001
0.15,2.3171e-20,-0.0572916,1.00001
0.15,2.31702e-20,-0.05625,1.00001
0.15,2.31712e-20,-0.0552083,1.00001
0.15,2.31723e-20,-0.0541667,1.00001
0.15,2.31735e-20,-0.053125,1.00001
0.15,2.31748e-20,-0.0520833,1.00001
0.15,2.31762e-20,-0.0510417,1.00001
0.15,2.31776e-20,-0.05,1.00001
0.15,2.31768e-20,-0.0489583,1.00001
0.15,2.31759e-20,-0.0479167,1
0.15,2.31767e-20,-0.046875,1
0.15,2.31774e-20,-0.0458333,1
0.15,2.31771e-20,-0.0447916,1
0.15,2.31767e-20,-0.04375,1
0.15,2.31766e-20,-0.0427083,1
0.15,2.31766e-20,-0.0416667,1
0.15,2.31765e-20,-0.040625,1
0.15,2.31764e-20,-0.0395834,1
0.15,2.31764e-20,-0.0385417,1
0.15,2.31765e-20,-0.0375,1
0.15,2.31766e-20,-0.0364583,1
0.15,2.31768e-20,-0.0354166,0.999999
0.15,2.31768e-20,-0.0352831,0.999999
0.15,2.31768e-20,-0.0351497,0.999999
0.15,2.31768e-20,-0.0342415,0.999999
0.15,2.31768e-20,-0.0333333,0.999997
0.15,2.31769e-20,-0.0322916,0.999997
0.15,2.3177e-20,-0.03125,0.999989
0.15,2.31766e-20,-0.0302083,0.999989
0.15,2.31763e-20,-0.0291667,0.999936
0.15,2.31767e-20,-0.028125,0.999936
0.15,4.1359e-25,-0.0270834,0.998848
0.15,2.31772e-20,-0.0270834,0.999936
0.15,-3.00831e-20,-0.0260417,0.998848
0.15,-6.01666e-20,-0.025,0.973533
0.15,-6.0167e-20,-0.0239583,0.973533
0.15,-6.01673e-20,-0.0229166,0.70291
0.15,-6.01672e-20,-0.021875,0.70291
0.15,-6.0167e-20,-0.0208333,0.17173
0.15,-6.01665e-20,-0.0197917,0.17173
0.15,-6.01659e-20,-0.01875,0.00946629
0.15,-6.0166e-20,-0.0177083,0.00946629
0.15,-6.0166e-20,-0.0166667,0.000839152
0.15,-6.01663e-20,-0.0156251,0.000839152
0.15,-6.01667e-20,-0.0145834,0.000161508
0.15,-6.01662e-20,-0.0135417,0.000161508
0.15,-6.01658e-20,-0.0125,2.80731e-05
0.15,-6.01653e-20,-0.0114584,2.80731e-05
0.15,-6.01648e-20,-0.0104167,4.80541e-06
0.15,-6.01659e-20,-0.00937502,4.80541e-06
0.15,-6.0167e-20,-0.00833333,7.66604e-07
0.15,-6.01676e-20,-0.00729167,7.66604e-07
0.15,-6.01681e-20,-0.00625,1.14537e-07
0.15,-6.01679e-20,-0.00520834,1.14537e-07
0.15,-6.01677e-20,-0.00416667,8.73673e-09
0.15,-6.01678e-20,-0.003125,8.73673e-09
0.15,-6.01678e-20,-0.00208333,2.17446e-09
0.15,-6.01675e-20,-0.00104166,2.17446e-09
0.15,-6.01673e-20,6.22205e-12,2.17446e-09
0.15,-2.06795e-25,6.22205e-12,1.43797e-09
0.15,1.17571e-20,0.00104167,1.43797e-09
0.15,2.35143e-20,0.00208333,1.32845e-09
0.15,2.3514e-20,0.003125,1.32845e-09
0.15,2.35137e-20,0.00416667,1.31372e-09
0.15,2.35138e-20,0.00520833,1.31372e-09
0.15,2.35139e-20,0.00625,1.45975e-09
0.15,2.35136e-20,0.00729166,1.45975e-09
0.15,2.35134e-20,0.00833333,2.42507e-09
0.15,2.35134e-20,0.00937501,2.42507e-09
0.15,2.35134e-20,0.0104167,4.16013e-09
0.15,2.35134e-20,0.0110184,4.16013e-09
0.15,2.35134e-20,0.0116201,4.52708e-09
0.15,2.35134e-20,0.01206,4.52708e-09
0.15,2.35134e-20,0.0125,3.66518e-09
0.15,2.35135e-20,0.0135417,3.66518e-09
0.15,2.35136e-20,0.0145834,2.09962e-09
0.15,2.35136e-20,0.015625,2.09962e-09
0.15,2.35136e-20,0.0166667,1.38829e-09
0.15,2.35136e-20,0.017406,1.38829e-09
0.15,2.35135e-20,0.0181453,1.43851e-09
0.15,2.35135e-20,0.0184476,1.43851e-09
0.15,2.35136e-20,0.01875,1.1858e-09
0.15,2.35135e-20,0.0197916,1.1858e-09
0.15,2.35134e-20,0.0208333,1.23157e-09
0.15,2.35135e-20,0.021875,1.23157e-09
0.15,2.35135e-20,0.0229166,1.32389e-09
0.15,2.35139e-20,0.0239583,1.32389e-09
0.15,2.35143e-20,0.025,1.35363e-09
0.15,2.35142e-20,0.0260417,1.35363e-09
0.15,2.35142e-20,0.0270834,1.31406e-09
0.15,2.35137e-20,0.028125,1.31406e-09
0.15,2.35132e-20,0.0291667,1.21906e-09
0.15,2.35128e-20,0.0302083,1.21906e-09
0.15,2.35124e-20,0.03125,1.13914e-09
0.15,2.35131e-20,0.0322916,1.13914e-09
0.15,2.35138e-20,0.0333333,1.09368e-09
0.15,2.35139e-20,0.034375,1.09368e-09
0.15,2.3514e-20,0.0354166,1.06067e-09
0.15,2.35139e-20,0.0364583,1.06067e-09
0.15,2.35139e-20,0.0375,1.0437e-09
0.15,2.35147e-20,0.0385417,1.0437e-09
0.15,2.35155e-20,0.0395833,1.0437e-09
0.15,2.09311e-08,0.0395833,1.0445e-09
0.15,2.09311e-08,0.040625,1.0445e-09
0.15,2.09311e-08,0.0416667,1.0496e-09
0.15,2.09311e-08,0.0427083,1.0496e-09
0.15,2.09311e-08,0.04375,1.06449e-09
0.15,2.09311e-08,0.0447916,1.06449e-09
0.15,2.09311e-08,0.0458333,1.08354e-09
0.15,2.09311e-08,0.046875,1.08354e-09
0.15,2.09311e-08,0.0479167,1.10108e-09
0.15,2.09311e-08,0.0489583,1.10108e-09
0.15,2.09311e-08,0.05,1.11559e-09
0.15,2.09311e-08,0.0510417,1.11559e-09
0.15,2.09311e-08,0.0520833,1.11735e-09
0.15,2.09311e-08,0.053125,1.11735e-09
0.15,2.09311e-08,0.0541667,1.11341e-09
0.15,2.09311e-08,0.0552084,1.11341e-09
0.15,2.09311e-08,0.0562501,1.09936e-09
0.15,2.09311e-08,0.0572917,1.09936e-09
0.15,2.09311e-08,0.0583334,1.02529e-09
0.15,2.09311e-08,0.059375,1.02529e-09
0.15,2.09311e-08,0.0604167,7.78633e-10
0.15,2.09311e-08,0.0614584,7.78633e-10
0.15,2.09311e-08,0.0625,6.7637e-10
0.15,2.09311e-08,0.0635417,6.7637e-10
0.15,2.09311e-08,0.0645833,4.01415e-09
0.15,2.09311e-08,0.065625,4.01415e-09
0.15,2.09311e-08,0.0666667,7.03936e-08
0.15,2.09311e-08,0.0677084,7.03936e-08
0.15,2.09311e-08,0.0687501,1.13503e-06
0.15,2.09311e-08,0.0697918,1.13503e-06
0.15,2.09311e-08,0.0708334,2.06258e-06
0.15,2.09311e-08,0.0718751,2.06258e-06
0.15,2.09311e-08,0.0729167,2.07253e-06
0.15,2.09311e-08,0.0739585,2.07253e-06
0.15,2.09311e-08,0.0750002,2.0742e-06
0.15,2.09311e-08,0.0760418,2.0742e-06
0.15,2.09311e-08,0.0770834,2.07445e-06
0.15,2.09311e-08,0.0781252,2.07445e-06
0.15,2.09311e-08,0.0791669,2.07445e-06
0.15,2.09311e-08,0.0812503,2.07445e-06
0.15,2.09311e-08,0.0833337,1.51392e-06
0.15,2.09311e-08,0.0875008,1.51392e-06
0.15,2.09311e-08,0.0916678,2.33471e-07
0.15,2.09311e-08,0.095475,2.33471e-07
0.15,2.09311e-08,0.0992822,5.11455e-07
0.15,2.09311e-08,0.0996422,5.11455e-07
0.15,2.09311e-08,0.100002,3.44761e-08
0.15,2.09311e-08,0.100344,3.44761e-08
0.15,2.09311e-08,0.100686,2.70144e-08
0.15,2.09311e-08,0.104512,2.70144e-08
0.15,2.09311e-08,0.108337,1.18912e-08
0.15,2.09311e-08,0.112505,1.18912e-08
0.15,-2.06795e-25,0.116672,4.98929e-09
0.15,2.09311e-08,0.116672,1.18912e-08
0.15,2.1042e-19,0.12084,4.98929e-09
0.15,4.2084e-19,0.125008,3.09964e-09
