x,y,z,alpha.water
0,0.1,-0.125,1
1.35525e-20,0.1,-0.120834,1
2.71051e-20,0.1,-0.116667,1
-1.3976e-19,0.1,-0.1125,1
-2.30393e-19,0.1,-0.108333,1
-3.06626e-19,0.1,-0.108333,1
-6.06476e-19,0.1,-0.104166,1
-9.82558e-19,0.1,-0.1,1
-8.1654e-19,0.1,-0.0958334,1
-6.50521e-19,0.1,-0.0916667,1
-6.98802e-19,0.1,-0.0875,1
-7.47083e-19,0.1,-0.0833333,1.00001
-6.44592e-19,0.1,-0.08125,1.00001
-5.42101e-19,0.1,-0.0791667,1.00001
-5.42101e-19,0.1,-0.0781251,1.00001
-5.42101e-19,0.1,-0.0770834,1.00001
-5.72594e-19,0.1,-0.0760417,1.00001
-6.03087e-19,0.1,-0.075,1.00001
-5.18384e-19,0.1,-0.0739584,1.00001
-4.33681e-19,0.1,-0.0729167,1.00001
-5.96311e-19,0.1,-0.071875,1.00001
-7.58942e-19,0.1,-0.0708333,1.00001
-9.21572e-19,0.1,-0.0697917,1.00001
-1.0842e-18,0.1,-0.0687501,1.00001
-1.12401e-18,0.1,-0.0677084,1.00001
-1.16382e-18,0.1,-0.0666667,1.00001
-1.12401e-18,0.1,-0.065625,1.00001
-1.0842e-18,0.1,-0.0645833,1.00001
-1.24683e-18,0.1,-0.0635417,1.00001
-1.40946e-18,0.1,-0.0625,1.00001
-1.35525e-18,0.1,-0.0614584,1.00001
-1.30104e-18,0.1,-0.0604167,1.00001
-1.4912e-18,0.1,-0.059375,1.00001
-1.68136e-18,0.1,-0.0583333,1.00001
-1.65383e-18,0.1,-0.0572917,1.00001
-1.6263e-18,0.1,-0.05625,1.00001
-1.51788e-18,0.1,-0.0552084,1.00001
-1.40946e-18,0.1,-0.0541667,1.00001
-1.40946e-18,0.1,-0.0531251,1.00001
-1.40946e-18,0.1,-0.0520834,1.00001
-1.51195e-18,0.1,-0.0510417,1.00001
-1.61444e-18,0.1,-0.05,1.00001
-1.62037e-18,0.1,-0.0489583,1.00001
-1.6263e-18,0.1,-0.0479166,1.00001
-1.57209e-18,0.1,-0.046875,1.00001
-1.51788e-18,0.1,-0.0458333,1.00001
-1.46367e-18,0.1,-0.0447917,1.00001
-1.40946e-18,0.1,-0.04375,1.00001
-1.34805e-18,0.1,-0.0427084,1.00001
-1.28664e-18,0.1,-0.0416667,1
-1.29384e-18,0.1,-0.040625,1
-1.30104e-18,0.1,-0.0395833,1
-1.30104e-18,0.1,-0.0385417,1
-1.30104e-18,0.1,-0.0375,1
-1.30104e-18,0.1,-0.0364583,1
-1.30104e-18,0.1,-0.0354166,1
-1.24493e-18,0.1,-0.034375,1
-1.18881e-18,0.1,-0.0333333,1
-1.24493e-18,0.1,-0.0322917,1
-1.30104e-18,0.1,-0.03125,1
-1.0842e-18,0.1,-0.0302084,1
-8.67362e-19,0.1,-0.0291667,1
-8.67362e-19,0.1,-0.028125,1
-8.67362e-19,0.1,-0.0270834,1
-9.83617e-19,0.1,-0.0260417,1
-1.09987e-18,0.1,-0.025,1
-1.09204e-18,0.1,-0.0239584,1
-1.0842e-18,0.1,-0.0229167,1
-1.0842e-18,0.1,-0.021875,1
-1.0842e-18,0.1,-0.0208333,1
-1.0842e-18,0.1,-0.0197917,1
-1.0842e-18,0.1,-0.01875,1
-1.09267e-18,0.1,-0.0177084,1
-1.10114e-18,0.1,-0.0166667,0.999998
-1.09267e-18,0.1,-0.015625,0.999998
-1.0842e-18,0.1,-0.0145834,0.999981
-1.02999e-18,0.1,-0.0135417,0.999981
-9.75782e-19,0.1,-0.0125,0.999739
-9.75782e-19,0.1,-0.0114584,0.999739
-9.75782e-19,0.1,-0.0104167,0.995534
-1.00702e-18,0.1,-0.00937502,0.995534
-1.03825e-18,0.1,-0.00833333,0.937869
-1.01962e-18,0.1,-0.00729167,0.937869
-1.00098e-18,0.1,-0.00625,0.937869
3.00697e-20,0.1,-0.00625,0.579399
-9.33854e-20,0.1,-0.00520833,0.579399
-2.1684e-19,0.1,-0.00416667,0.122848
-2.1684e-19,0.1,-0.003125,0.122848
-2.1684e-19,0.1,-0.00208333,0.0111929
-3.40084e-19,0.1,-0.00104166,0.0111929
-4.63327e-19,0.1,8.12332e-11,0.00125215
-3.94294e-19,0.1,0.00104167,0.00125215
-3.25261e-19,0.1,0.00208334,0.000268232
-3.25261e-19,0.1,0.00312501,0.000268232
-3.25261e-19,0.1,0.00416667,6.49732e-05
-3.25261e-19,0.1,0.00520834,6.49732e-05
-3.25261e-19,0.1,0.00625,1.44334e-05
-3.39978e-19,0.1,0.00729167,1.44334e-05
-3.54695e-19,0.1,0.00833333,2.86053e-06
-3.94188e-19,0.1,0.00937502,2.86053e-06
-4.33681e-19,0.1,0.0104167,5.34644e-07
-4.33681e-19,0.1,0.0114584,5.34644e-07
-4.33681e-19,0.1,0.0125,6.15992e-08
-4.87891e-19,0.1,0.0135417,6.15992e-08
-5.42101e-19,0.1,0.0145834,1.1711e-08
-5.34054e-19,0.1,0.015625,1.1711e-08
-5.26007e-19,0.1,0.0166667,2.62327e-09
-5.34054e-19,0.1,0.0177084,2.62327e-09
-5.42101e-19,0.1,0.01875,1.53298e-09
-5.42101e-19,0.1,0.0197917,1.53298e-09
-5.42101e-19,0.1,0.0208333,1.35433e-09
-5.42101e-19,0.1,0.021875,1.35433e-09
-5.42101e-19,0.1,0.0229167,1.32894e-09
-5.34054e-19,0.1,0.0239584,1.32894e-09
-5.26007e-19,0.1,0.025,1.39467e-09
-5.34054e-19,0.1,0.0260417,1.39467e-09
-5.42101e-19,0.1,0.0270834,1.46208e-09
-5.42101e-19,0.1,0.028125,1.46208e-09
-5.42101e-19,0.1,0.0291667,1.73302e-09
-7.58942e-19,0.1,0.0302084,1.73302e-09
-9.75782e-19,0.1,0.03125,2.22663e-09
-8.48939e-19,0.1,0.0322917,2.22663e-09
-7.22096e-19,0.1,0.0333333,2.27805e-09
-6.32098e-19,0.1,0.034375,2.27805e-09
-5.42101e-19,0.1,0.0354166,2.19244e-09
-5.42101e-19,0.1,0.0364583,2.19244e-09
-5.42101e-19,0.1,0.0375,1.86879e-09
-6.50521e-19,0.1,0.0385417,1.86879e-09
-7.58942e-19,0.1,0.0395833,1.68699e-09
-7.89858e-19,0.1,0.040625,1.68699e-09
-8.20775e-19,0.1,0.0416667,1.7042e-09
-8.44068e-19,0.1,0.0427084,1.7042e-09
-8.67362e-19,0.1,0.04375,1.89759e-09
-8.13152e-19,0.1,0.0447917,1.89759e-09
-7.58942e-19,0.1,0.0458334,2.17488e-09
-8.13152e-19,0.1,0.0468751,2.17488e-09
-8.67362e-19,0.1,0.0479167,2.11899e-09
-7.69318e-19,0.1,0.0489584,2.11899e-09
-6.71274e-19,0.1,0.0500001,1.97864e-09
-6.06687e-19,0.1,0.0510418,1.97864e-09
-5.42101e-19,0.1,0.0520836,1.83903e-09
-5.96311e-19,0.1,0.0531252,1.83903e-09
-6.50521e-19,0.1,0.0541669,1.80205e-09
-5.42101e-19,0.1,0.0552086,1.80205e-09
-4.33681e-19,0.1,0.0562503,1.80207e-09
-4.14623e-19,0.1,0.057292,1.80207e-09
-3.95564e-19,0.1,0.0583337,1.80013e-09
-5.23043e-19,0.1,0.0593755,1.80013e-09
-6.50521e-19,0.1,0.0604172,1.80346e-09
-5.42101e-19,0.1,0.0614589,1.80346e-09
-4.33681e-19,0.1,0.0625006,1.81366e-09
-8.13152e-19,0.1,0.0635424,1.81366e-09
-1.19262e-18,0.1,0.0645841,1.80381e-09
-1.16467e-18,0.1,0.0656259,1.80381e-09
-1.13672e-18,0.1,0.0666676,1.77255e-09
-1.27309e-18,0.1,0.0677095,1.77255e-09
-1.40946e-18,0.1,0.0687513,1.73447e-09
-1.30104e-18,0.1,0.0697931,1.73447e-09
-1.19262e-18,0.1,0.0708348,1.7143e-09
-1.0842e-18,0.1,0.0718767,1.7143e-09
-9.75782e-19,0.1,0.0729186,1.70978e-09
-7.58942e-19,0.1,0.0739604,1.70978e-09
-5.42101e-19,0.1,0.0750022,1.70978e-09
-4.91279e-20,0.1,0.0750022,1.70791e-09
2.96462e-20,0.1,0.0760443,1.70791e-09
1.0842e-19,0.1,0.0770863,1.70756e-09
5.42101e-20,0.1,0.0781282,1.70756e-09
0,0.1,0.0791701,1.72193e-09
1.33831e-19,0.1,0.0812546,1.72193e-09
2.67662e-19,0.1,0.083339,1.74932e-09
1.33831e-19,0.1,0.0875103,1.74932e-09
0,0.1,0.0916816,1.84922e-09
-8.80914e-20,0.1,0.0958553,1.84922e-09
-1.76183e-19,0.1,0.100029,1.89174e-09
-1.42302e-19,0.1,0.108387,1.89174e-09
-1.0842e-19,0.1,0.116745,1.88042e-09
-1.6263e-19,0.1,0.12511,1.88042e-09
-2.1684e-19,0.1,0.133474,1.90146e-09
