x,y,z,alpha.water
0.125,0,-0.125,1.00001
0.125,-7.89969e-19,-0.120833,1.00001
0.125,0,-0.116667,1.00001
0.125,-1.57994e-18,-0.116667,1.00001
0.125,-1.96116e-20,-0.1125,1.00001
0.125,-3.92233e-20,-0.108333,1.00001
0.125,-3.92257e-20,-0.104166,1.00001
0.125,-3.92282e-20,-0.1,1.00001
0.125,-3.92307e-20,-0.0958333,1.00001
0.125,-3.92332e-20,-0.0916667,1.00001
0.125,-3.92315e-20,-0.0875,1.00001
0.125,-3.92299e-20,-0.0833333,1.00001
0.125,-3.92299e-20,-0.08125,1.00001
0.125,-3.92299e-20,-0.0791667,1.00001
0.125,-3.92286e-20,-0.0781251,1.00001
0.125,-3.92274e-20,-0.0770835,1.00001
0.125,-3.9227e-20,-0.0760417,1.00001
0.125,-3.92266e-20,-0.075,1.00001
0.125,-3.92261e-20,-0.0739584,1.00001
0.125,-3.92257e-20,-0.0729167,1.00001
0.125,-3.92257e-20,-0.071875,1.00001
0.125,-3.92257e-20,-0.0708333,1.00001
0.125,-3.92266e-20,-0.0697917,1.00001
0.125,-3.92274e-20,-0.0687501,1.00001
0.125,-3.92274e-20,-0.0677084,1.00001
0.125,-3.92274e-20,-0.0666667,1.00001
0.125,-3.92278e-20,-0.065625,1.00001
0.125,-3.92282e-20,-0.0645834,1.00001
0.125,-3.92278e-20,-0.0635417,1.00001
0.125,-3.92274e-20,-0.0625,1.00001
0.125,-3.9227e-20,-0.0614583,1.00001
0.125,-3.92266e-20,-0.0604167,1.00001
0.125,-3.92268e-20,-0.059375,1.00001
0.125,-3.9227e-20,-0.0583333,1.00001
0.125,-3.92266e-20,-0.0572916,1.00001
0.125,-3.92261e-20,-0.05625,1.00001
0.125,-3.92265e-20,-0.0552083,1.00001
0.125,-3.92269e-20,-0.0541667,1.00001
0.125,-3.92266e-20,-0.053125,1.00001
0.125,-3.92264e-20,-0.0520834,1.00001
0.125,-3.92268e-20,-0.0510417,1.00001
0.125,-3.92272e-20,-0.05,1.00001
0.125,-3.92271e-20,-0.0489583,1.00001
0.125,-3.92271e-20,-0.0479167,1.00001
0.125,-3.92271e-20,-0.046875,1.00001
0.125,-3.92272e-20,-0.0458333,1.00001
0.125,-3.92272e-20,-0.0447916,1.00001
0.125,-3.92273e-20,-0.04375,1.00001
0.125,-3.92273e-20,-0.0427083,1.00001
0.125,-3.92274e-20,-0.0416667,1.00001
0.125,-3.92275e-20,-0.040625,1.00001
0.125,-3.92275e-20,-0.0395834,1.00001
0.125,-3.92276e-20,-0.0385417,1.00001
0.125,-3.92276e-20,-0.0375,1.00001
0.125,-3.92277e-20,-0.0364583,1.00001
0.125,-3.92277e-20,-0.0354167,1.00001
0.125,-3.92277e-20,-0.034375,1.00001
0.125,-1.03398e-25,-0.0333333,1.00001
0.125,-3.92277e-20,-0.0333333,1.00001
0.125,4.85102e-20,-0.0322916,1.00001
0.125,9.70204e-20,-0.03125,1.00001
0.125,9.70204e-20,-0.0302083,1.00001
0.125,9.70203e-20,-0.0291667,1.00001
0.125,9.70203e-20,-0.028125,1.00001
0.125,9.70203e-20,-0.0270833,1.00001
0.125,9.70203e-20,-0.0260417,1.00001
0.125,9.70203e-20,-0.025,1.00001
0.125,9.70203e-20,-0.0239583,1.00001
0.125,9.70203e-20,-0.0229167,1.00001
0.125,9.70203e-20,-0.021875,1.00001
0.125,9.70203e-20,-0.0208333,1.00001
0.125,9.70203e-20,-0.0197916,1.00001
0.125,9.70203e-20,-0.01875,1.00001
0.125,9.70203e-20,-0.0177083,1.00001
0.125,9.70203e-20,-0.0166667,1.00001
0.125,9.70203e-20,-0.015625,1.00001
0.125,9.70203e-20,-0.0145834,1.00001
0.125,9.70203e-20,-0.0135417,1.00001
0.125,9.70203e-20,-0.0125,1.00001
0.125,9.70203e-20,-0.0114583,1.00001
0.125,9.70203e-20,-0.0104167,1.00001
0.125,9.70203e-20,-0.00937501,1.00001
0.125,9.70203e-20,-0.00833333,1
0.125,9.70203e-20,-0.00729166,1
0.125,9.70203e-20,-0.00625,1
0.125,9.70203e-20,-0.00520833,1
0.125,9.70203e-20,-0.00416667,1
0.125,9.70203e-20,-0.003125,1
0.125,9.70202e-20,-0.00208333,1
0.125,9.70202e-20,-0.00104166,1
0.125,9.70203e-20,5.02453e-11,1
0.125,9.70202e-20,0.00104167,1
0.125,9.70202e-20,0.00208334,1
0.125,2.58494e-26,0.00208334,1
0.125,-4.45745e-19,0.00312501,1
0.125,-8.91491e-19,0.00416667,1
0.125,-8.91491e-19,0.00520833,1
0.125,-8.91491e-19,0.00625,1
0.125,-8.91491e-19,0.00729166,1
0.125,-8.91491e-19,0.00833333,1
0.125,-8.91491e-19,0.00937501,1
0.125,-8.91491e-19,0.0104167,1
0.125,-8.91491e-19,0.0114583,1
0.125,-8.91491e-19,0.0125,1
0.125,-8.91491e-19,0.0135417,1
0.125,-8.91491e-19,0.0145834,1
0.125,-8.91491e-19,0.015625,1
0.125,-8.91491e-19,0.0166667,0.999996
0.125,-8.91491e-19,0.0177084,0.999996
0.125,-8.91491e-19,0.01875,0.999962
0.125,-8.91491e-19,0.0197917,0.999962
0.125,-8.91491e-19,0.0208333,0.999689
0.125,-8.91491e-19,0.021875,0.999689
0.125,-8.91491e-19,0.0229167,0.99756
0.125,-8.91491e-19,0.0239584,0.99756
0.125,-8.91491e-19,0.025,0.980249
0.125,-8.91491e-19,0.0260417,0.980249
0.125,-8.91491e-19,0.0270833,0.837883
0.125,-8.91491e-19,0.028125,0.837883
0.125,-8.91491e-19,0.0291667,0.35555
0.125,-8.91491e-19,0.0302084,0.35555
0.125,-8.91491e-19,0.03125,0.0529812
0.125,-8.91491e-19,0.0322917,0.0529812
0.125,-8.91491e-19,0.0333333,0.00704003
0.125,-8.91491e-19,0.034375,0.00704003
0.125,-8.91491e-19,0.0354167,0.00109091
0.125,-8.91491e-19,0.0364584,0.00109091
0.125,-8.91491e-19,0.0375,0.00109091
0.125,3.87741e-26,0.0375,0.000206911
0.125,-7.08569e-20,0.0385416,0.000206911
0.125,-1.41714e-19,0.0395833,4.59659e-05
0.125,-1.41714e-19,0.040625,4.59659e-05
0.125,-1.41714e-19,0.0416667,1.02198e-05
0.125,-1.41714e-19,0.0427084,1.02198e-05
0.125,-1.41714e-19,0.0437501,2.3563e-06
0.125,-1.41714e-19,0.0447918,2.3563e-06
0.125,-1.41714e-19,0.0458334,4.89829e-07
0.125,-1.41714e-19,0.0468751,4.89829e-07
0.125,-1.41714e-19,0.0479168,9.76435e-08
0.125,-1.41714e-19,0.0489585,9.76435e-08
0.125,-1.41714e-19,0.0500001,2.99764e-08
0.125,-1.41714e-19,0.0510418,2.99764e-08
0.125,-1.41714e-19,0.0520834,6.97028e-09
0.125,-1.41714e-19,0.0531251,6.97028e-09
0.125,-1.41714e-19,0.0541668,2.51051e-09
0.125,-1.41714e-19,0.0552085,2.51051e-09
0.125,-1.41714e-19,0.0562502,1.17451e-09
0.125,-1.41714e-19,0.0572919,1.17451e-09
0.125,-1.41714e-19,0.0583336,9.58714e-10
0.125,-1.41714e-19,0.0593753,9.58714e-10
0.125,-1.41714e-19,0.060417,8.63878e-10
0.125,-1.41714e-19,0.0614587,8.63878e-10
0.125,-1.41714e-19,0.0625004,8.53309e-10
0.125,-1.41714e-19,0.0635421,8.53309e-10
0.125,-1.41714e-19,0.0645839,8.41113e-10
0.125,-1.41714e-19,0.0656256,8.41113e-10
0.125,-1.41714e-19,0.0666673,8.286e-10
0.125,-1.41714e-19,0.067709,8.286e-10
0.125,-1.41714e-19,0.0687508,8.12881e-10
0.125,-1.41714e-19,0.0697925,8.12881e-10
0.125,-1.41714e-19,0.0708343,7.89019e-10
0.125,-1.41714e-19,0.071876,7.89019e-10
0.125,-1.41714e-19,0.0729178,7.61048e-10
0.125,-1.41714e-19,0.0739596,7.61048e-10
0.125,-1.41714e-19,0.0750014,7.36075e-10
0.125,-1.41714e-19,0.0760433,7.36075e-10
0.125,-1.41714e-19,0.0770852,7.03296e-10
0.125,-1.41714e-19,0.078127,7.03296e-10
0.125,-1.41714e-19,0.0791688,6.89155e-10
0.125,-1.41714e-19,0.0812526,6.89155e-10
0.125,-1.41714e-19,0.0833364,9.68174e-10
0.125,-1.41714e-19,0.0875061,9.68174e-10
0.125,-1.41714e-19,0.0916759,5.75977e-09
0.125,-1.41714e-19,0.0935013,5.75977e-09
0.125,-1.41714e-19,0.0953267,5.52939e-08
0.125,-1.41714e-19,0.0976718,5.52939e-08
0.125,-1.41714e-19,0.100017,3.18543e-08
0.125,-1.41712e-19,0.108368,3.18543e-08
0.125,-1.41711e-19,0.116719,3.18543e-08
0.125,8.36112e-08,0.116719,1.56327e-08
0.125,8.36112e-08,0.125074,1.56327e-08
0.125,8.36112e-08,0.133429,5.70397e-09
