x,y,z,alpha.water
0.125,0,-0.125,1.00001
0.125,-1.65436e-24,-0.125,1.00001
0.125,5.92774e-20,-0.120834,1.00001
0.125,1.18555e-19,-0.116667,1.00001
0.125,1.18552e-19,-0.1125,1.00001
0.125,1.18548e-19,-0.108333,1.00001
0.125,1.18552e-19,-0.104166,1.00001
0.125,1.18555e-19,-0.1,1.00001
0.125,1.1855e-19,-0.0958333,1.00001
0.125,1.18545e-19,-0.0916667,1.00001
0.125,1.18548e-19,-0.0875,1.00001
0.125,1.18552e-19,-0.0833333,1.00001
0.125,1.18547e-19,-0.08125,1.00001
0.125,1.18543e-19,-0.0791667,1.00001
0.125,1.18544e-19,-0.0781251,1.00001
0.125,1.18545e-19,-0.0770836,1.00001
0.125,1.18544e-19,-0.0760418,1.00001
0.125,1.18543e-19,-0.075,1.00001
0.125,1.18542e-19,-0.0739584,1.00001
0.125,1.18541e-19,-0.0729167,1.00001
0.125,1.18541e-19,-0.071875,1.00001
0.125,1.18541e-19,-0.0708333,1.00001
0.125,1.18542e-19,-0.0697917,1.00001
0.125,1.18543e-19,-0.0687501,1.00001
0.125,1.18543e-19,-0.0677084,1.00001
0.125,1.18543e-19,-0.0666667,1.00001
0.125,1.18544e-19,-0.065625,1.00001
0.125,1.18546e-19,-0.0645834,1.00001
0.125,1.18546e-19,-0.0635417,1.00001
0.125,1.18547e-19,-0.0625,1.00001
0.125,1.18547e-19,-0.0614584,1.00001
0.125,1.18546e-19,-0.0604167,1.00001
0.125,1.18546e-19,-0.059375,1.00001
0.125,1.18545e-19,-0.0583333,1.00001
0.125,1.18546e-19,-0.0572917,1.00001
0.125,1.18547e-19,-0.05625,1.00001
0.125,1.18547e-19,-0.0552084,1.00001
0.125,1.18548e-19,-0.0541667,1.00001
0.125,1.18548e-19,-0.0531251,1.00001
0.125,1.18548e-19,-0.0520834,1.00001
0.125,1.18548e-19,-0.0510417,1.00001
0.125,1.18548e-19,-0.05,1.00001
0.125,1.18548e-19,-0.0489584,1.00001
0.125,1.18548e-19,-0.0479167,1.00001
0.125,1.18549e-19,-0.046875,1.00001
0.125,1.18549e-19,-0.0458333,1.00001
0.125,1.18549e-19,-0.0447917,1.00001
0.125,1.18549e-19,-0.04375,1.00001
0.125,1.18549e-19,-0.0427084,1.00001
0.125,1.18549e-19,-0.0416667,1.00001
0.125,1.18549e-19,-0.040625,1.00001
0.125,1.18549e-19,-0.0395834,1
0.125,1.18549e-19,-0.0385417,1
0.125,1.18549e-19,-0.0375,1
0.125,1.18549e-19,-0.0364583,1
0.125,1.18549e-19,-0.0354166,1
0.125,1.18549e-19,-0.034375,1
0.125,1.18549e-19,-0.0333333,1
0.125,1.18549e-19,-0.0322917,1
0.125,1.18549e-19,-0.03125,1
0.125,-5.16988e-26,-0.03125,1
0.125,9.06865e-20,-0.0302084,1
0.125,1.81373e-19,-0.0291667,1
0.125,1.81373e-19,-0.0281251,1
0.125,1.81373e-19,-0.0270834,1
0.125,1.81373e-19,-0.0262998,1
0.125,1.81373e-19,-0.0255162,1
0.125,1.81373e-19,-0.0252581,1
0.125,1.81373e-19,-0.025,1
0.125,1.81373e-19,-0.0239583,1
0.125,1.81373e-19,-0.0229166,0.999997
0.125,1.81373e-19,-0.021875,0.999997
0.125,1.81373e-19,-0.0208333,0.999977
0.125,1.81373e-19,-0.0197917,0.999977
0.125,1.81373e-19,-0.01875,0.999828
0.125,1.81373e-19,-0.0187226,0.999828
0.125,1.81373e-19,-0.0186951,0.999828
0.125,1.81373e-19,-0.0176809,0.999828
0.125,1.81373e-19,-0.0166667,0.998799
0.125,1.81373e-19,-0.0156251,0.998799
0.125,1.81373e-19,-0.0145834,0.992015
0.125,1.81373e-19,-0.0142023,0.992015
0.125,1.81373e-19,-0.0138211,0.992014
0.125,1.81373e-19,-0.0131606,0.992014
0.125,1.81373e-19,-0.0125,0.947281
0.125,1.81373e-19,-0.011988,0.947281
0.125,1.81373e-19,-0.0114761,0.947284
0.125,1.81373e-19,-0.0109464,0.947284
0.125,1.81373e-19,-0.0104167,0.679524
0.125,1.81373e-19,-0.00937502,0.679524
0.125,1.81373e-19,-0.00833333,0.184807
0.125,1.81373e-19,-0.00729166,0.184807
0.125,1.81373e-19,-0.00625,0.0199924
0.125,1.81373e-19,-0.00520833,0.0199924
0.125,1.81373e-19,-0.00416667,0.00487416
0.125,1.81373e-19,-0.003125,0.00487416
0.125,1.81373e-19,-0.00208333,0.00171619
0.125,1.81373e-19,-0.00104166,0.00171619
0.125,1.81373e-19,2.8444e-11,0.000548474
0.125,1.81373e-19,0.00104167,0.000548474
0.125,1.81373e-19,0.00208333,0.000548474
0.125,0,0.00208333,0.000174176
0.125,-6.96292e-20,0.003125,0.000174176
0.125,-1.39258e-19,0.00416667,5.46339e-05
0.125,-1.39258e-19,0.00520833,5.46339e-05
0.125,-1.39258e-19,0.00625,1.60792e-05
0.125,-1.39258e-19,0.00729166,1.60792e-05
0.125,-1.39258e-19,0.00833333,4.3693e-06
0.125,-1.39258e-19,0.00937502,4.3693e-06
0.125,-1.39258e-19,0.0104167,1.19648e-06
0.125,-1.39258e-19,0.0114584,1.19648e-06
0.125,-1.39258e-19,0.0125,2.55915e-07
0.125,-1.39258e-19,0.0135417,2.55915e-07
0.125,-1.39258e-19,0.0145834,7.15453e-08
0.125,-1.39258e-19,0.015625,7.15453e-08
0.125,-1.39258e-19,0.0166667,1.78427e-08
0.125,-1.39258e-19,0.0177083,1.78427e-08
0.125,-1.39259e-19,0.01875,5.56526e-09
0.125,-1.39259e-19,0.0197916,5.56526e-09
0.125,-1.39259e-19,0.0208333,2.11494e-09
0.125,-1.39259e-19,0.021875,2.11494e-09
0.125,-1.39259e-19,0.0229166,1.15e-09
0.125,-1.39259e-19,0.0239583,1.15e-09
0.125,-1.39259e-19,0.025,9.06989e-10
0.125,-1.39258e-19,0.0260417,9.06989e-10
0.125,-1.39258e-19,0.0270834,8.58255e-10
0.125,-1.39258e-19,0.028125,8.58255e-10
0.125,-1.39258e-19,0.0291667,8.45927e-10
0.125,-1.39258e-19,0.0302083,8.45927e-10
0.125,-1.39258e-19,0.03125,8.41212e-10
0.125,-1.39258e-19,0.0322916,8.41212e-10
0.125,-1.39258e-19,0.0333333,8.44507e-10
0.125,-1.39258e-19,0.034375,8.44507e-10
0.125,-1.39258e-19,0.0354167,8.46983e-10
0.125,-1.39258e-19,0.0364584,8.46983e-10
0.125,-1.39258e-19,0.0375,8.46983e-10
0.125,0,0.0375,8.56093e-10
0.125,1.29069e-19,0.0385417,8.56093e-10
0.125,2.58138e-19,0.0395834,8.88294e-10
0.125,2.58138e-19,0.040625,8.88294e-10
0.125,2.58138e-19,0.0416667,9.44142e-10
0.125,2.58138e-19,0.0427084,9.44142e-10
0.125,2.58138e-19,0.0437501,9.63071e-10
0.125,2.58138e-19,0.0447917,9.63071e-10
0.125,2.58138e-19,0.0458334,9.51996e-10
0.125,2.58138e-19,0.0468751,9.51996e-10
0.125,2.58138e-19,0.0479167,9.12119e-10
0.125,2.58138e-19,0.0489584,9.12119e-10
0.125,2.58138e-19,0.05,8.46596e-10
0.125,2.58138e-19,0.0510417,8.46596e-10
0.125,2.58138e-19,0.0520834,7.94402e-10
0.125,2.58138e-19,0.0531251,7.94402e-10
0.125,2.58138e-19,0.0541667,7.80154e-10
0.125,2.58138e-19,0.0552084,7.80154e-10
0.125,2.58138e-19,0.0562501,7.81751e-10
0.125,2.58138e-19,0.0572918,7.81751e-10
0.125,2.58138e-19,0.0583335,7.87774e-10
0.125,2.58138e-19,0.0593752,7.87774e-10
0.125,2.58138e-19,0.0604168,8.00993e-10
0.125,2.58138e-19,0.0614585,8.00993e-10
0.125,2.58138e-19,0.0625002,8.29877e-10
0.125,2.58138e-19,0.0635419,8.29877e-10
0.125,2.58138e-19,0.0645836,9.4879e-10
0.125,2.58138e-19,0.0656253,9.4879e-10
0.125,2.58138e-19,0.066667,1.54676e-09
0.125,2.58138e-19,0.0677088,1.54676e-09
0.125,2.58137e-19,0.0687505,3.74097e-09
0.125,2.58138e-19,0.0697922,3.74097e-09
0.125,2.58138e-19,0.0708338,6.64995e-09
0.125,2.58138e-19,0.0718756,6.64995e-09
0.125,2.58138e-19,0.0729173,7.01137e-09
0.125,2.58139e-19,0.0739591,7.01137e-09
0.125,2.58139e-19,0.0750008,6.51952e-09
0.125,2.58139e-19,0.0760426,6.51952e-09
0.125,2.58138e-19,0.0770844,5.65983e-09
0.125,2.58139e-19,0.0781261,5.65983e-09
0.125,2.58139e-19,0.0791678,7.1777e-09
0.125,2.58139e-19,0.0812515,7.1777e-09
0.125,2.5814e-19,0.0833351,3.76888e-09
0.125,2.58141e-19,0.0875036,3.76888e-09
0.125,2.58142e-19,0.091672,6.64818e-09
0.125,2.58142e-19,0.095841,6.64818e-09
0.125,2.58142e-19,0.10001,3.53758e-09
0.125,2.58142e-19,0.102301,3.53758e-09
0.125,2.58142e-19,0.104591,1.55025e-08
0.125,2.58142e-19,0.110644,1.55025e-08
0.125,2.58142e-19,0.116697,1.55025e-08
0.125,8.37312e-08,0.116697,1.17029e-08
0.125,8.37312e-08,0.125045,1.17029e-08
0.125,8.37312e-08,0.133392,7.96244e-09
