x,y,z,alpha.water
0.125,0,-0.125,1
0.125,1.20255e-19,-0.120834,1
0.125,2.40509e-19,-0.116667,1
0.125,3.30872e-24,-0.116667,1
0.125,1.72164e-19,-0.1125,1
0.125,3.44326e-19,-0.108333,1
0.125,3.44323e-19,-0.104166,1
0.125,3.44321e-19,-0.1,1
0.125,3.4432e-19,-0.0958333,1
0.125,3.44319e-19,-0.0916667,1
0.125,3.44321e-19,-0.0875,1
0.125,3.44322e-19,-0.0833333,1
0.125,3.44322e-19,-0.08125,1
0.125,3.44322e-19,-0.0791667,1
0.125,3.44321e-19,-0.0781251,1
0.125,3.44321e-19,-0.0770835,1
0.125,3.4432e-19,-0.0760417,1
0.125,3.44319e-19,-0.075,1
0.125,3.44319e-19,-0.0739583,1
0.125,3.4432e-19,-0.0729167,1
0.125,3.44319e-19,-0.071875,1
0.125,3.44318e-19,-0.0708333,1
0.125,3.44318e-19,-0.0697917,1
0.125,3.44318e-19,-0.0687501,1
0.125,3.44318e-19,-0.0677084,1
0.125,3.44318e-19,-0.0666667,1
0.125,3.44318e-19,-0.065625,1
0.125,3.44318e-19,-0.0645834,1
0.125,3.44317e-19,-0.0635417,1
0.125,3.44316e-19,-0.0625,1
0.125,3.44316e-19,-0.0614583,1
0.125,3.44316e-19,-0.0604167,1
0.125,3.44316e-19,-0.059375,1
0.125,3.44316e-19,-0.0583333,1
0.125,3.44316e-19,-0.0572916,1
0.125,3.44316e-19,-0.05625,1
0.125,3.44316e-19,-0.0552083,1
0.125,3.44317e-19,-0.0541667,1
0.125,3.44316e-19,-0.053125,1
0.125,3.44316e-19,-0.0520834,1
0.125,3.44316e-19,-0.0510417,1
0.125,3.44316e-19,-0.05,1
0.125,3.44316e-19,-0.0489583,1
0.125,3.44317e-19,-0.0479166,1
0.125,3.44317e-19,-0.046875,1
0.125,3.44316e-19,-0.0458333,1
0.125,3.44316e-19,-0.0447916,1
0.125,3.44316e-19,-0.04375,1
0.125,3.44316e-19,-0.0427083,1
0.125,3.44316e-19,-0.0416667,1
0.125,3.44316e-19,-0.040625,1
0.125,3.44316e-19,-0.0395834,1
0.125,3.44316e-19,-0.0385417,1
0.125,3.44316e-19,-0.0375,1
0.125,3.44316e-19,-0.0364583,1
0.125,3.44316e-19,-0.0354167,1
0.125,3.44316e-19,-0.034375,1
0.125,-2.58494e-26,-0.0333333,1
0.125,3.44316e-19,-0.0333333,1
0.125,-2.80441e-19,-0.0322917,1
0.125,-5.60882e-19,-0.03125,1
0.125,-5.60882e-19,-0.0302084,1
0.125,-5.60882e-19,-0.0291667,1
0.125,-5.60882e-19,-0.0281251,1
0.125,-5.60882e-19,-0.0270834,1
0.125,-5.60882e-19,-0.0260417,1
0.125,-5.60882e-19,-0.025,0.999999
0.125,-5.60882e-19,-0.0239583,0.999999
0.125,-5.60882e-19,-0.0229167,0.999995
0.125,-5.60882e-19,-0.021875,0.999995
0.125,-5.60882e-19,-0.0208333,0.999977
0.125,-5.60882e-19,-0.0197916,0.999977
0.125,-5.60882e-19,-0.01875,0.999899
0.125,-5.60882e-19,-0.0177083,0.999899
0.125,-5.60882e-19,-0.0166667,0.999594
0.125,-5.60882e-19,-0.015625,0.999594
0.125,-5.60882e-19,-0.0145834,0.997292
0.125,-5.60882e-19,-0.0135417,0.997292
0.125,-5.60882e-19,-0.0125,0.949859
0.125,-5.60882e-19,-0.0114583,0.949859
0.125,-5.60882e-19,-0.0104167,0.57175
0.125,-5.60882e-19,-0.009375,0.57175
0.125,-5.60882e-19,-0.00833333,0.0995643
0.125,-5.60882e-19,-0.00729166,0.0995643
0.125,-5.60882e-19,-0.00625,0.00589437
0.125,-5.60882e-19,-0.00520833,0.00589437
0.125,-5.60882e-19,-0.00416667,0.000449505
0.125,-5.60882e-19,-0.003125,0.000449505
0.125,-5.60882e-19,-0.00208333,5.22587e-05
0.125,-5.60882e-19,-0.00104166,5.22587e-05
0.125,-5.60882e-19,6.85131e-11,6.72893e-06
0.125,-5.60882e-19,0.00104167,6.72893e-06
0.125,-5.60882e-19,0.00208334,5.68593e-07
0.125,-5.60882e-19,0.003125,5.68593e-07
0.125,-5.60882e-19,0.00416667,5.68593e-07
0.125,0,0.00416667,2.61522e-08
0.125,-1.19571e-19,0.00520834,2.61522e-08
0.125,-2.39142e-19,0.00625,2.29566e-09
0.125,-2.39142e-19,0.00729167,2.29566e-09
0.125,-2.39142e-19,0.00833333,5.87562e-10
0.125,-2.39142e-19,0.009375,5.87562e-10
0.125,-2.39142e-19,0.0104167,5.38709e-10
0.125,-2.39142e-19,0.0114583,5.38709e-10
0.125,-2.39142e-19,0.0125,5.35784e-10
0.125,-2.39142e-19,0.0135417,5.35784e-10
0.125,-2.39142e-19,0.0145833,4.76836e-10
0.125,-2.39142e-19,0.015625,4.76836e-10
0.125,-2.39142e-19,0.0166667,3.75839e-10
0.125,-2.39142e-19,0.0177084,3.75839e-10
0.125,-2.39142e-19,0.01875,3.09894e-10
0.125,-2.39142e-19,0.0197917,3.09894e-10
0.125,-2.39142e-19,0.0208333,2.55725e-10
0.125,-2.39142e-19,0.021875,2.55725e-10
0.125,-2.39142e-19,0.0229166,1.99508e-10
0.125,-2.39142e-19,0.0239583,1.99508e-10
0.125,-2.39142e-19,0.025,1.50257e-10
0.125,-2.39142e-19,0.0260417,1.50257e-10
0.125,-2.39142e-19,0.0270834,1.12403e-10
0.125,-2.39142e-19,0.0281251,1.12403e-10
0.125,-2.39142e-19,0.0291667,8.44822e-11
0.125,-2.39142e-19,0.0302084,8.44822e-11
0.125,-2.39142e-19,0.03125,6.38179e-11
0.125,-2.39142e-19,0.0322917,6.38179e-11
0.125,-2.39142e-19,0.0333333,4.81618e-11
0.125,-2.39142e-19,0.034375,4.81618e-11
0.125,-2.39142e-19,0.0354167,3.60583e-11
0.125,-2.39142e-19,0.0364584,3.60583e-11
0.125,-2.39142e-19,0.0375,3.60583e-11
0.125,0,0.0375,2.6734e-11
0.125,-1.31676e-20,0.0385417,2.6734e-11
0.125,-2.63353e-20,0.0395834,1.95633e-11
0.125,-2.63353e-20,0.040625,1.95633e-11
0.125,-2.63352e-20,0.0416667,1.40973e-11
0.125,-2.63353e-20,0.0427084,1.40973e-11
0.125,-2.63353e-20,0.0437501,9.98743e-12
0.125,-2.63353e-20,0.0447917,9.98743e-12
0.125,-2.63352e-20,0.0458334,6.95403e-12
0.125,-2.63353e-20,0.0468751,6.95403e-12
0.125,-2.63353e-20,0.0479168,4.7581e-12
0.125,-2.63353e-20,0.048607,4.7581e-12
0.125,-2.63353e-20,0.0492973,4.54753e-12
0.125,-2.63353e-20,0.0496487,4.54753e-12
0.125,-2.63353e-20,0.0500001,3.04478e-12
0.125,-2.63353e-20,0.0510418,3.04478e-12
0.125,-2.63353e-20,0.0520835,2.002e-12
0.125,-2.63353e-20,0.0531252,2.002e-12
0.125,-2.63353e-20,0.0541669,1.29152e-12
0.125,-2.63353e-20,0.0551124,1.29152e-12
0.125,-2.63353e-20,0.0560579,1.36752e-12
0.125,-2.63353e-20,0.0561541,1.36752e-12
0.125,-2.63353e-20,0.0562503,8.68358e-13
0.125,-2.63353e-20,0.057292,8.68358e-13
0.125,-2.63353e-20,0.0583337,5.39251e-13
0.125,-2.63353e-20,0.0585998,5.39251e-13
0.125,-2.63353e-20,0.058866,5.04855e-13
0.125,-2.63353e-20,0.0596373,5.04855e-13
0.125,-2.63353e-20,0.0604087,5.39251e-13
0.125,-2.63353e-20,0.0604129,5.39251e-13
0.125,-2.63353e-20,0.0604172,3.26884e-13
0.125,-2.63353e-20,0.0604231,3.26884e-13
0.125,-2.63353e-20,0.0604289,3.04661e-13
0.125,-2.63353e-20,0.0614647,3.04661e-13
0.125,-2.63353e-20,0.0625005,1.79298e-13
0.125,-2.63353e-20,0.0635422,1.79298e-13
0.125,-2.63353e-20,0.064584,1.03512e-13
0.125,-2.63353e-20,0.0656257,1.03512e-13
0.125,-2.63353e-20,0.0666675,5.96307e-14
0.125,-2.63354e-20,0.0677093,5.96307e-14
0.125,-2.63354e-20,0.0687511,3.53654e-14
0.125,-2.63354e-20,0.0697928,3.53654e-14
0.125,-2.63354e-20,0.0708346,2.22351e-14
0.125,-2.63354e-20,0.0718765,2.22351e-14
0.125,-2.63354e-20,0.0729184,1.49275e-14
0.125,-2.63353e-20,0.0739601,1.49275e-14
0.125,-2.63352e-20,0.0750018,1.05004e-14
0.125,-2.63352e-20,0.0760439,1.05004e-14
0.125,-2.63353e-20,0.0770859,7.60423e-15
0.125,-2.63352e-20,0.0781277,7.60423e-15
0.125,-2.63352e-20,0.0791696,4.89051e-15
0.125,-2.63352e-20,0.0812538,4.89051e-15
0.125,-2.63352e-20,0.083338,2.23912e-15
0.125,-2.63355e-20,0.0875083,2.23912e-15
0.125,-2.63358e-20,0.0916787,3.91217e-16
0.125,-2.63356e-20,0.0958495,3.91217e-16
0.125,-2.63354e-20,0.10002,4.91965e-17
0.125,-2.63381e-20,0.108377,4.91965e-17
0.125,-2.63407e-20,0.116735,4.91965e-17
0.125,3.30872e-24,0.116735,2.08761e-18
0.125,-1.54492e-18,0.125095,2.08761e-18
0.125,-3.08985e-18,0.133456,3.94054e-20
