x,y,z,alpha.water
0.1,0,-0.125,1.00001
0.1,7.02855e-20,-0.120834,1.00001
0.1,1.40571e-19,-0.116667,1.00001
0.1,0,-0.116667,1.00001
0.1,-8.96895e-20,-0.1125,1.00001
0.1,-1.79379e-19,-0.108333,1.00001
0.1,-1.79384e-19,-0.104166,1.00001
0.1,-1.79389e-19,-0.1,1.00001
0.1,-1.79392e-19,-0.0958333,1.00001
0.1,-1.79395e-19,-0.0916667,1.00001
0.1,-1.79393e-19,-0.0875,1.00001
0.1,-1.79391e-19,-0.0833333,1.00001
0.1,-1.79391e-19,-0.08125,1.00001
0.1,-1.7939e-19,-0.0791667,1.00001
0.1,-1.79388e-19,-0.0781251,1.00001
0.1,-1.79386e-19,-0.0770835,1.00001
0.1,-1.79387e-19,-0.0760418,1.00001
0.1,-1.79388e-19,-0.075,1.00001
0.1,-1.79388e-19,-0.0739584,1.00001
0.1,-1.79388e-19,-0.0729167,1.00001
0.1,-1.79389e-19,-0.071875,1.00001
0.1,-1.7939e-19,-0.0708333,1.00001
0.1,-1.79391e-19,-0.0697917,1.00001
0.1,-1.79391e-19,-0.0687501,1.00001
0.1,-1.79391e-19,-0.0677084,1.00001
0.1,-1.79391e-19,-0.0666667,1.00001
0.1,-1.79392e-19,-0.0656251,1.00001
0.1,-1.79392e-19,-0.0645834,1.00001
0.1,-1.79392e-19,-0.0635417,1.00001
0.1,-1.79391e-19,-0.0625,1.00001
0.1,-1.79392e-19,-0.0614583,1.00001
0.1,-1.79393e-19,-0.0604167,1.00001
0.1,-1.79392e-19,-0.059375,1.00001
0.1,-1.79391e-19,-0.0583333,1.00001
0.1,-1.79392e-19,-0.0572916,1.00001
0.1,-1.79392e-19,-0.05625,1.00001
0.1,-1.79391e-19,-0.0552083,1.00001
0.1,-1.79391e-19,-0.0541667,1.00001
0.1,-1.79391e-19,-0.0531251,1.00001
0.1,-1.79391e-19,-0.0520834,1.00001
0.1,-1.79391e-19,-0.0510417,1.00001
0.1,-1.79391e-19,-0.05,1.00001
0.1,-1.79391e-19,-0.0489583,1.00001
0.1,-1.79391e-19,-0.0479166,1
0.1,-1.79391e-19,-0.046875,1
0.1,-1.79391e-19,-0.0458333,1
0.1,-1.79391e-19,-0.0447917,1
0.1,-1.79391e-19,-0.04375,1
0.1,-1.79391e-19,-0.0427084,1
0.1,-1.79391e-19,-0.0416667,1
0.1,-1.79391e-19,-0.0406251,1
0.1,-1.79392e-19,-0.0395834,1
0.1,-1.79392e-19,-0.0385417,1
0.1,-1.79392e-19,-0.0375,1
0.1,-1.79392e-19,-0.0364584,1
0.1,-1.79391e-19,-0.0354167,1
0.1,0,-0.0354167,0.999999
0.1,1.41026e-19,-0.034375,0.999999
0.1,2.82053e-19,-0.0333333,0.999993
0.1,2.82053e-19,-0.0322917,0.999993
0.1,2.82053e-19,-0.03125,0.999953
0.1,2.82053e-19,-0.0302084,0.999953
0.1,2.82053e-19,-0.0291667,0.999047
0.1,2.82053e-19,-0.0281251,0.999047
0.1,2.82053e-19,-0.0270834,0.97647
0.1,2.82053e-19,-0.0260417,0.97647
0.1,2.82053e-19,-0.025,0.712613
0.1,2.82053e-19,-0.0239584,0.712613
0.1,2.82053e-19,-0.0229167,0.178655
0.1,2.82053e-19,-0.021875,0.178655
0.1,2.82053e-19,-0.0208333,0.00989401
0.1,2.82053e-19,-0.0197917,0.00989401
0.1,2.82053e-19,-0.01875,0.000608611
0.1,2.82053e-19,-0.0177084,0.000608611
0.1,2.82053e-19,-0.0166667,9.23879e-05
0.1,2.82053e-19,-0.0156251,9.23879e-05
0.1,2.82053e-19,-0.0145834,1.45768e-05
0.1,2.82053e-19,-0.0135417,1.45768e-05
0.1,2.82053e-19,-0.0125,2.04975e-06
0.1,2.82053e-19,-0.0114584,2.04975e-06
0.1,2.82053e-19,-0.0104167,2.60329e-07
0.1,2.82053e-19,-0.00937502,2.60329e-07
0.1,2.82053e-19,-0.00833333,2.44358e-08
0.1,2.82053e-19,-0.00729167,2.44358e-08
0.1,2.82053e-19,-0.00625,4.74773e-09
0.1,2.82053e-19,-0.00520834,4.74773e-09
0.1,2.82053e-19,-0.00416667,2.16309e-09
0.1,2.82053e-19,-0.003125,2.16309e-09
0.1,2.82053e-19,-0.00208333,2.08802e-09
0.1,2.82053e-19,-0.00104166,2.08802e-09
0.1,2.82053e-19,7.05845e-11,2.53896e-09
0.1,2.82053e-19,0.00104167,2.53896e-09
0.1,2.82053e-19,0.00208334,1.53529e-09
0.1,2.82053e-19,0.00312501,1.53529e-09
0.1,2.82053e-19,0.00416667,1.53529e-09
0.1,-6.46235e-27,0.00416667,6.71031e-10
0.1,-1.06574e-19,0.00520833,6.71031e-10
0.1,-2.13147e-19,0.00625,5.68171e-10
0.1,-2.13147e-19,0.00729166,5.68171e-10
0.1,-2.13147e-19,0.00833333,5.97223e-10
0.1,-2.13147e-19,0.00937501,5.97223e-10
0.1,-2.13147e-19,0.0104167,6.29111e-10
0.1,-2.13147e-19,0.0114583,6.29111e-10
0.1,-2.13147e-19,0.0125,6.28641e-10
0.1,-2.13147e-19,0.0135417,6.28641e-10
0.1,-2.13147e-19,0.0145833,6.18742e-10
0.1,-2.13147e-19,0.015625,6.18742e-10
0.1,-2.13147e-19,0.0166667,6.26805e-10
0.1,-2.13147e-19,0.0177083,6.26805e-10
0.1,-2.13147e-19,0.01875,6.98902e-10
0.1,-2.13147e-19,0.0197916,6.98902e-10
0.1,-2.13147e-19,0.0208333,8.65938e-10
0.1,-2.13147e-19,0.0218749,8.65938e-10
0.1,-2.13147e-19,0.0229166,1.05653e-09
0.1,-2.13147e-19,0.0239583,1.05653e-09
0.1,-2.13147e-19,0.025,1.17651e-09
0.1,-2.13147e-19,0.0260417,1.17651e-09
0.1,-2.13147e-19,0.0270834,1.24299e-09
0.1,-2.13147e-19,0.028125,1.24299e-09
0.1,-2.13147e-19,0.0291667,1.33581e-09
0.1,-2.13147e-19,0.0302083,1.33581e-09
0.1,-2.13147e-19,0.03125,1.63816e-09
0.1,-2.13147e-19,0.0322916,1.63816e-09
0.1,-2.13147e-19,0.0333333,2.03562e-09
0.1,-2.13147e-19,0.034375,2.03562e-09
0.1,-2.13147e-19,0.0354167,3.26622e-09
0.1,-2.13147e-19,0.0364583,3.26622e-09
0.1,-2.13147e-19,0.0375,3.26622e-09
0.1,-4.84676e-27,0.0375,1.34643e-08
0.1,-1.82477e-20,0.0385417,1.34643e-08
0.1,-3.64953e-20,0.0395834,6.08114e-08
0.1,-3.64953e-20,0.040625,6.08114e-08
0.1,-3.64953e-20,0.0416667,6.93541e-08
0.1,-3.64953e-20,0.0427084,6.93541e-08
0.1,-3.64953e-20,0.0437501,4.81961e-08
0.1,-3.64953e-20,0.0443888,4.81961e-08
0.1,-3.64953e-20,0.0450275,1.12869e-09
0.1,-3.64953e-20,0.0454305,1.12869e-09
0.1,-3.64953e-20,0.0458334,7.70753e-10
0.1,-3.64953e-20,0.0468751,7.70753e-10
0.1,-3.64953e-20,0.0479168,6.12975e-10
0.1,-3.64953e-20,0.0489585,6.12975e-10
0.1,-3.64953e-20,0.0500001,5.9003e-10
0.1,-3.64953e-20,0.0510418,5.9003e-10
0.1,-3.64953e-20,0.0520835,5.89265e-10
0.1,-3.64953e-20,0.0531252,5.89265e-10
0.1,-3.64953e-20,0.0541669,5.98105e-10
0.1,-3.64953e-20,0.0552086,5.98105e-10
0.1,-3.64953e-20,0.0562503,6.70274e-10
0.1,-3.64954e-20,0.057292,6.70274e-10
0.1,-3.64954e-20,0.0583337,8.23182e-10
0.1,-3.64954e-20,0.0593755,8.23182e-10
0.1,-3.64954e-20,0.0604172,1.00065e-09
0.1,-3.64954e-20,0.0614589,1.00065e-09
0.1,-3.64954e-20,0.0625005,1.13718e-09
0.1,-3.64954e-20,0.0635423,1.13718e-09
0.1,-3.64954e-20,0.064584,1.17883e-09
0.1,-3.64954e-20,0.0656258,1.17883e-09
0.1,-3.64954e-20,0.0666675,1.16203e-09
0.1,-3.64953e-20,0.0677093,1.16203e-09
0.1,-3.64952e-20,0.0687511,1.11427e-09
0.1,-3.64953e-20,0.0697929,1.11427e-09
0.1,-3.64953e-20,0.0708346,1.06322e-09
0.1,-3.64951e-20,0.0718766,1.06322e-09
0.1,-3.6495e-20,0.0729185,1.03251e-09
0.1,-3.64951e-20,0.0739602,1.03251e-09
0.1,-3.64952e-20,0.0750019,1.00932e-09
0.1,-3.64951e-20,0.076044,1.00932e-09
0.1,-3.6495e-20,0.077086,9.89352e-10
0.1,-3.64949e-20,0.0781279,9.89352e-10
0.1,-3.64947e-20,0.0791697,9.68485e-10
0.1,-3.64948e-20,0.081254,9.68485e-10
0.1,-3.64948e-20,0.0833384,9.5646e-10
0.1,-3.6495e-20,0.0875087,9.5646e-10
0.1,-3.64952e-20,0.0916789,9.46278e-10
0.1,-3.64948e-20,0.0958496,9.46278e-10
0.1,-3.64944e-20,0.10002,1.07278e-09
0.1,-3.64894e-20,0.108378,1.07278e-09
0.1,-3.64845e-20,0.116736,1.07278e-09
0.1,3.30872e-24,0.116736,1.51401e-09
0.1,7.24047e-19,0.125098,1.51401e-09
0.1,1.44809e-18,0.133459,2.26573e-09
