# Field minima and maxima
# Time          	field           	min             	location(min)   	processor       	max             	location(max)   	processor       
0.2125          	mag(U)          	0.00000000e+00	(2.24898417e-01 5.00000000e-01 4.24990750e-01)	0	1.18461687e+00	(-3.71979932e-02 -1.95356483e-01 7.02880173e-01)	6
0.214375        	mag(U)          	0.00000000e+00	(2.24898417e-01 5.00000000e-01 4.24990750e-01)	0	6.48159405e-01	(1.61069121e-01 -7.77115768e-02 4.70264632e-01)	13
0.21625         	mag(U)          	0.00000000e+00	(2.24898417e-01 5.00000000e-01 4.24990750e-01)	0	7.85950830e-01	(-3.67390425e-02 1.97136759e-01 7.03338708e-01)	8
0.218125        	mag(U)          	0.00000000e+00	(2.24898417e-01 5.00000000e-01 4.24990750e-01)	0	1.07823781e+00	(-3.65087294e-02 -1.95130359e-01 7.03563729e-01)	6
0.22            	mag(U)          	0.00000000e+00	(2.24898417e-01 5.00000000e-01 4.24990750e-01)	0	1.28402204e+00	(-3.62778267e-02 -1.94693326e-01 7.03786156e-01)	6
0.221667        	mag(U)          	0.00000000e+00	(2.24898417e-01 5.00000000e-01 4.24990750e-01)	0	8.28223896e-01	(-3.60721046e-02 1.97825552e-01 7.03981705e-01)	8
0.22375         	mag(U)          	0.00000000e+00	(2.24898417e-01 5.00000000e-01 4.24990750e-01)	0	7.23241048e-01	(-3.58144543e-02 1.97760220e-01 7.04222955e-01)	8
0.225833        	mag(U)          	0.00000000e+00	(2.24898417e-01 5.00000000e-01 4.24990750e-01)	0	1.82769473e+00	(-3.55562767e-02 -1.94061042e-01 7.04460707e-01)	6
0.226875        	mag(U)          	0.00000000e+00	(2.24898417e-01 5.00000000e-01 4.24990750e-01)	0	2.14044946e+00	(-3.54269707e-02 -1.93587901e-01 7.04578375e-01)	6
0.227917        	mag(U)          	0.00000000e+00	(2.24898417e-01 5.00000000e-01 4.24990750e-01)	0	1.05737227e+00	(-7.37913506e-02 -1.81914548e-01 7.10916143e-01)	10
0.228958        	mag(U)          	0.00000000e+00	(2.24898417e-01 5.00000000e-01 4.24990750e-01)	0	9.56963129e-01	(-7.36618017e-02 -1.81806442e-01 7.11032115e-01)	10
0.23            	mag(U)          	0.00000000e+00	(2.24898417e-01 5.00000000e-01 4.24990750e-01)	0	2.23192191e+00	(-3.50383284e-02 -1.92836043e-01 7.04926298e-01)	6
0.230833        	mag(U)          	0.00000000e+00	(2.24898417e-01 5.00000000e-01 4.24990750e-01)	0	2.40736697e+00	(-3.72961033e-03 -1.98603686e-01 7.01998958e-01)	6
0.231597        	mag(U)          	0.00000000e+00	(2.24898417e-01 5.00000000e-01 4.24990750e-01)	0	1.18487890e+00	(-6.07095298e-02 -1.86656624e-01 7.11344084e-01)	10
0.232531        	mag(U)          	0.00000000e+00	(2.24898417e-01 5.00000000e-01 4.24990750e-01)	0	1.22876303e+00	(-6.05930835e-02 -1.86463546e-01 7.11445380e-01)	10
0.233598        	mag(U)          	0.00000000e+00	(2.24898417e-01 5.00000000e-01 4.24990750e-01)	0	3.39494079e+00	(-3.45896839e-02 -1.91258845e-01 7.05317405e-01)	6
0.234131        	mag(U)          	0.00000000e+00	(2.24898417e-01 5.00000000e-01 4.24990750e-01)	0	3.78156189e+00	(-3.31815076e-03 -1.97000492e-01 7.02355712e-01)	6
0.23462         	mag(U)          	0.00000000e+00	(2.24898417e-01 5.00000000e-01 4.24990750e-01)	0	2.15239898e+00	(-3.25706029e-03 -1.96787982e-01 7.02407887e-01)	6
0.235218        	mag(U)          	0.00000000e+00	(2.24898417e-01 5.00000000e-01 4.24990750e-01)	0	2.32697799e+00	(-3.18236936e-03 -1.96494886e-01 7.02471401e-01)	6
0.235901        	mag(U)          	0.00000000e+00	(2.24898417e-01 5.00000000e-01 4.24990750e-01)	0	4.98390732e+00	(-3.07720864e-03 2.09324706e-01 4.69236834e-01)	14
0.236274        	mag(U)          	0.00000000e+00	(2.24898417e-01 5.00000000e-01 4.24990750e-01)	0	5.65825527e+00	(-3.03061177e-03 2.09784515e-01 4.69276085e-01)	14
0.236613        	mag(U)          	0.00000000e+00	(2.24898417e-01 5.00000000e-01 4.24990750e-01)	0	3.31169636e+00	(-3.00801934e-03 -1.95022330e-01 7.02618484e-01)	6
0.237036        	mag(U)          	0.00000000e+00	(2.24898417e-01 5.00000000e-01 4.24990750e-01)	0	3.52096302e+00	(-2.95505279e-03 -1.94690043e-01 7.02662843e-01)	6
0.23753         	mag(U)          	0.00000000e+00	(2.24898417e-01 5.00000000e-01 4.24990750e-01)	0	7.67179334e+00	(3.96791503e-02 2.11098149e-01 4.63157872e-01)	15
0.237804        	mag(U)          	0.00000000e+00	(2.24898417e-01 5.00000000e-01 4.24990750e-01)	0	8.15155593e+00	(-2.83906775e-03 2.11591282e-01 4.63186175e-01)	14
0.238079        	mag(U)          	0.00000000e+00	(2.24898417e-01 5.00000000e-01 4.24990750e-01)	0	4.55705680e+00	(-2.82454937e-03 -1.93179735e-01 7.02771495e-01)	6
0.238399        	mag(U)          	0.00000000e+00	(2.24898417e-01 5.00000000e-01 4.24990750e-01)	0	4.65202433e+00	(-2.78446935e-03 -1.92840930e-01 7.02804682e-01)	6
0.238799        	mag(U)          	0.00000000e+00	(2.24898417e-01 5.00000000e-01 4.24990750e-01)	0	1.13323844e+01	(-2.71451656e-03 2.13032781e-01 4.63289241e-01)	14
0.238999        	mag(U)          	0.00000000e+00	(2.24898417e-01 5.00000000e-01 4.24990750e-01)	0	1.29896964e+01	(3.98631499e-02 2.13464808e-01 4.57060148e-01)	15
0.2392          	mag(U)          	0.00000000e+00	(2.24898417e-01 5.00000000e-01 4.24990750e-01)	0	6.47070687e+00	(-2.68424351e-03 -1.91257900e-01 7.02887296e-01)	6
0.239466        	mag(U)          	0.00000000e+00	(2.24898417e-01 5.00000000e-01 4.24990750e-01)	0	6.38571135e+00	(-2.65082718e-03 -1.90861862e-01 7.02914722e-01)	6
0.239733        	mag(U)          	0.00000000e+00	(2.24898417e-01 5.00000000e-01 4.24990750e-01)	0	1.56996806e+01	(-2.59751036e-03 2.14905370e-01 4.57135281e-01)	14
0.239867        	mag(U)          	0.00000000e+00	(2.24898417e-01 5.00000000e-01 4.24990750e-01)	0	1.85280710e+01	(-2.58079705e-03 2.15306841e-01 4.57148944e-01)	14
0.24            	mag(U)          	0.00000000e+00	(2.24898417e-01 5.00000000e-01 4.24990750e-01)	0	8.71091752e+00	(-2.58398315e-03 -1.89473396e-01 7.02969405e-01)	6
0.240159        	mag(U)          	0.00000000e+00	(2.24898417e-01 5.00000000e-01 4.24990750e-01)	0	8.28467280e+00	(-2.56409752e-03 -1.89167008e-01 7.02985628e-01)	6
0.240341        	mag(U)          	0.00000000e+00	(2.24898417e-01 5.00000000e-01 4.24990750e-01)	0	2.09363386e+01	(4.00312474e-02 2.16467103e-01 4.50947691e-01)	15
0.240472        	mag(U)          	0.00000000e+00	(2.24898417e-01 5.00000000e-01 4.24990750e-01)	0	2.23222275e+01	(-2.50500290e-03 2.16979241e-01 4.57210725e-01)	14
0.240594        	mag(U)          	0.00000000e+00	(2.24898417e-01 5.00000000e-01 4.24990750e-01)	0	9.78347339e+00	(-2.50960280e-03 -1.87795608e-01 7.03029977e-01)	6
0.240738        	mag(U)          	0.00000000e+00	(2.24898417e-01 5.00000000e-01 4.24990750e-01)	0	9.83586026e+00	(-2.49146920e-03 -1.87462493e-01 7.03044700e-01)	6
0.240904        	mag(U)          	0.00000000e+00	(2.24898417e-01 5.00000000e-01 4.24990750e-01)	0	2.90911155e+01	(-2.45079076e-03 2.18312477e-01 4.51004696e-01)	14
0.241005        	mag(U)          	0.00000000e+00	(2.24898417e-01 5.00000000e-01 4.24990750e-01)	0	3.08057115e+01	(-2.43812315e-03 2.18792936e-01 4.51014956e-01)	14
0.2411          	mag(U)          	0.00000000e+00	(2.24898417e-01 5.00000000e-01 4.24990750e-01)	0	1.25704746e+01	(-2.44621095e-03 -1.85980871e-01 7.03081371e-01)	6
0.241212        	mag(U)          	0.00000000e+00	(2.24898417e-01 5.00000000e-01 4.24990750e-01)	0	1.29309895e+01	(-2.43209077e-03 -1.85636521e-01 7.03092790e-01)	6
0.241341        	mag(U)          	0.00000000e+00	(2.24898417e-01 5.00000000e-01 4.24990750e-01)	0	3.75348742e+01	(-2.39593408e-03 2.20149931e-01 4.51049065e-01)	14
0.241419        	mag(U)          	0.00000000e+00	(2.24898417e-01 5.00000000e-01 4.24990750e-01)	0	3.90929623e+01	(-2.38615572e-03 2.20626905e-01 4.51056958e-01)	14
0.241493        	mag(U)          	0.00000000e+00	(2.24898417e-01 5.00000000e-01 4.24990750e-01)	0	1.62730487e+01	(-2.39684424e-03 -1.84142391e-01 7.03121248e-01)	6
0.241581        	mag(U)          	0.00000000e+00	(2.24898417e-01 5.00000000e-01 4.24990750e-01)	0	1.75549850e+01	(3.42994545e-02 2.20802680e-01 4.57323537e-01)	15
0.241681        	mag(U)          	0.00000000e+00	(2.24898417e-01 5.00000000e-01 4.24990750e-01)	0	4.85435944e+01	(4.01993233e-02 2.21964197e-01 4.38583696e-01)	15
0.241742        	mag(U)          	0.00000000e+00	(2.24898417e-01 5.00000000e-01 4.24990750e-01)	0	4.98543098e+01	(-2.34567141e-03 2.22467662e-01 4.44839548e-01)	14
0.2418          	mag(U)          	0.00000000e+00	(2.24898417e-01 5.00000000e-01 4.24990750e-01)	0	2.11958072e+01	(3.43269632e-02 2.22293747e-01 4.51095652e-01)	15
0.241869        	mag(U)          	0.00000000e+00	(2.24898417e-01 5.00000000e-01 4.24990750e-01)	0	2.38676660e+01	(3.43356021e-02 2.22653783e-01 4.51102599e-01)	15
0.241947        	mag(U)          	0.00000000e+00	(2.24898417e-01 5.00000000e-01 4.24990750e-01)	0	6.25020327e+01	(4.02327086e-02 2.23811210e-01 4.32360515e-01)	15
0.241995        	mag(U)          	0.00000000e+00	(2.24898417e-01 5.00000000e-01 4.24990750e-01)	0	6.27624307e+01	(-2.31396492e-03 2.24310059e-01 4.44865038e-01)	14
0.242041        	mag(U)          	0.00000000e+00	(2.24898417e-01 5.00000000e-01 4.24990750e-01)	0	2.73008481e+01	(3.43571803e-02 2.24138915e-01 4.51119934e-01)	15
0.242096        	mag(U)          	0.00000000e+00	(2.24898417e-01 5.00000000e-01 4.24990750e-01)	0	3.08093396e+01	(3.43640623e-02 2.24507333e-01 4.51125458e-01)	15
0.242158        	mag(U)          	0.00000000e+00	(2.24898417e-01 5.00000000e-01 4.24990750e-01)	0	7.67603877e+01	(3.43719472e-02 2.25245355e-01 4.38631719e-01)	14
0.242196        	mag(U)          	0.00000000e+00	(2.24898417e-01 5.00000000e-01 4.24990750e-01)	0	7.75899702e+01	(3.43766745e-02 2.25711672e-01 4.38635509e-01)	14
0.242233        	mag(U)          	0.00000000e+00	(2.24898417e-01 5.00000000e-01 4.24990750e-01)	0	3.56436650e+01	(3.43812495e-02 2.26000832e-01 4.44889210e-01)	14
0.242276        	mag(U)          	0.00000000e+00	(2.24898417e-01 5.00000000e-01 4.24990750e-01)	0	4.07598424e+01	(3.43866905e-02 2.26373289e-01 4.44893570e-01)	14
0.242325        	mag(U)          	0.00000000e+00	(2.24898417e-01 5.00000000e-01 4.24990750e-01)	0	9.67550954e+01	(4.02801250e-02 2.27527623e-01 4.26148519e-01)	15
0.242355        	mag(U)          	0.00000000e+00	(2.24898417e-01 5.00000000e-01 4.24990750e-01)	0	9.83838136e+01	(-2.26876369e-03 2.28019561e-01 4.38651253e-01)	14
0.242385        	mag(U)          	0.00000000e+00	(2.24898417e-01 5.00000000e-01 4.24990750e-01)	0	4.35800637e+01	(3.44003099e-02 2.27854006e-01 4.44904478e-01)	14
0.24242         	mag(U)          	0.00000000e+00	(2.24898417e-01 5.00000000e-01 4.24990750e-01)	0	5.14413780e+01	(3.44047512e-02 2.28234098e-01 4.38658001e-01)	14
0.242459        	mag(U)          	0.00000000e+00	(2.24898417e-01 5.00000000e-01 4.24990750e-01)	0	1.28342389e+02	(4.02970067e-02 2.29395710e-01 4.19912001e-01)	15
0.242483        	mag(U)          	0.00000000e+00	(2.24898417e-01 5.00000000e-01 4.24990750e-01)	0	1.24539495e+02	(4.03000279e-02 2.29856003e-01 4.19914418e-01)	15
0.242508        	mag(U)          	0.00000000e+00	(2.24898417e-01 5.00000000e-01 4.24990750e-01)	0	5.59067041e+01	(3.44157346e-02 2.29723946e-01 4.38666788e-01)	14
0.242536        	mag(U)          	0.00000000e+00	(2.24898417e-01 5.00000000e-01 4.24990750e-01)	0	6.59219462e+01	(3.44192801e-02 2.30110021e-01 4.38669623e-01)	14
0.242568        	mag(U)          	0.00000000e+00	(2.24898417e-01 5.00000000e-01 4.24990750e-01)	0	1.59595022e+02	(4.03105683e-02 2.31272077e-01 4.19922846e-01)	15
0.242587        	mag(U)          	0.00000000e+00	(2.24898417e-01 5.00000000e-01 4.24990750e-01)	0	1.61601625e+02	(4.03130238e-02 2.31727083e-01 4.13674776e-01)	15
0.242606        	mag(U)          	0.00000000e+00	(2.24898417e-01 5.00000000e-01 4.24990750e-01)	0	7.11661469e+01	(9.70566895e-03 2.31659644e-01 4.32426516e-01)	14
0.242629        	mag(U)          	0.00000000e+00	(2.24898417e-01 5.00000000e-01 4.24990750e-01)	0	8.46126887e+01	(3.44309993e-02 2.31987206e-01 4.32428957e-01)	14
0.242654        	mag(U)          	0.00000000e+00	(2.24898417e-01 5.00000000e-01 4.24990750e-01)	0	2.28281904e+02	(4.03215030e-02 2.33143278e-01 4.13681551e-01)	15
0.24267         	mag(U)          	0.00000000e+00	(2.24898417e-01 5.00000000e-01 4.24990750e-01)	0	2.17362408e+02	(4.03234466e-02 2.33593072e-01 4.13683103e-01)	15
0.242685        	mag(U)          	0.00000000e+00	(2.24898417e-01 5.00000000e-01 4.24990750e-01)	0	9.31940709e+01	(-2.22729085e-03 2.33920139e-01 4.32434384e-01)	14
