x,y,z,alpha.water
0.125,0,-0.125,1.00001
0.125,-7.42752e-19,-0.120833,1.00001
0.125,0,-0.116667,1.00001
0.125,-1.4855e-18,-0.116667,1.00001
0.125,1.37686e-19,-0.1125,1.00001
0.125,2.75372e-19,-0.108333,1.00001
0.125,2.75373e-19,-0.104167,1.00001
0.125,2.75375e-19,-0.1,1.00001
0.125,2.75376e-19,-0.0958334,1.00001
0.125,2.75377e-19,-0.0916667,1.00001
0.125,2.75377e-19,-0.0875,1.00001
0.125,2.75377e-19,-0.0833333,1.00001
0.125,2.75379e-19,-0.08125,1.00001
0.125,2.75381e-19,-0.0791667,1.00001
0.125,2.7538e-19,-0.0781251,1.00001
0.125,2.75378e-19,-0.0770835,1.00001
0.125,2.75377e-19,-0.0760417,1.00001
0.125,2.75376e-19,-0.075,1.00001
0.125,2.75377e-19,-0.0739584,1.00001
0.125,2.75378e-19,-0.0729167,1.00001
0.125,2.75377e-19,-0.071875,1.00001
0.125,2.75376e-19,-0.0708333,1.00001
0.125,2.75376e-19,-0.0697917,1.00001
0.125,2.75377e-19,-0.0687501,1.00001
0.125,2.75377e-19,-0.0677084,1.00001
0.125,2.75378e-19,-0.0666667,1.00001
0.125,2.75378e-19,-0.0656251,1.00001
0.125,2.75378e-19,-0.0645834,1.00001
0.125,2.75378e-19,-0.0635417,1.00001
0.125,2.75377e-19,-0.0625,1.00001
0.125,2.75376e-19,-0.0614584,1.00001
0.125,2.75375e-19,-0.0604167,1.00001
0.125,2.75376e-19,-0.059375,1.00001
0.125,2.75376e-19,-0.0583333,1.00001
0.125,2.75376e-19,-0.0572917,1.00001
0.125,2.75375e-19,-0.05625,1.00001
0.125,2.75375e-19,-0.0552084,1.00001
0.125,2.75374e-19,-0.0541667,1.00001
0.125,2.75374e-19,-0.0531251,1.00001
0.125,2.75375e-19,-0.0520834,1.00001
0.125,2.75375e-19,-0.0510417,1.00001
0.125,2.75375e-19,-0.05,1.00001
0.125,2.75375e-19,-0.0489584,1.00001
0.125,2.75375e-19,-0.0479167,1.00001
0.125,2.75376e-19,-0.046875,1.00001
0.125,2.75376e-19,-0.0458333,1.00001
0.125,2.75376e-19,-0.0447917,1.00001
0.125,2.75376e-19,-0.04375,1.00001
0.125,2.75376e-19,-0.0427084,1.00001
0.125,2.75376e-19,-0.0416667,1.00001
0.125,2.75376e-19,-0.0406251,1.00001
0.125,2.75376e-19,-0.0395834,1.00001
0.125,2.75376e-19,-0.0385417,1.00001
0.125,2.75376e-19,-0.0375,1.00001
0.125,2.75376e-19,-0.0364583,1.00001
0.125,2.75376e-19,-0.0354166,1.00001
0.125,2.75376e-19,-0.034375,1.00001
0.125,5.16988e-26,-0.0333333,1.00001
0.125,2.75376e-19,-0.0333333,1.00001
0.125,1.90984e-19,-0.0322916,1.00001
0.125,3.81968e-19,-0.03125,1.00001
0.125,3.81968e-19,-0.0302083,1.00001
0.125,3.81968e-19,-0.0291667,1.00001
0.125,3.81968e-19,-0.028125,1.00001
0.125,3.81968e-19,-0.0270834,1.00001
0.125,3.81968e-19,-0.0260417,1.00001
0.125,3.81968e-19,-0.025,1.00001
0.125,3.81968e-19,-0.0239583,1.00001
0.125,3.81968e-19,-0.0229166,1
0.125,3.81968e-19,-0.021875,1
0.125,3.81968e-19,-0.0208333,1
0.125,3.81968e-19,-0.0197916,1
0.125,3.81968e-19,-0.01875,1
0.125,3.81968e-19,-0.0177083,1
0.125,3.81968e-19,-0.0166667,1
0.125,3.81968e-19,-0.015625,1
0.125,3.81968e-19,-0.0145834,1
0.125,3.81968e-19,-0.0135417,1
0.125,3.81968e-19,-0.0125,1
0.125,3.81968e-19,-0.0114583,1
0.125,3.81968e-19,-0.0104167,1
0.125,3.81968e-19,-0.00937501,1
0.125,3.81968e-19,-0.00833333,1
0.125,3.81968e-19,-0.00729166,1
0.125,3.81968e-19,-0.00625,1
0.125,3.81968e-19,-0.00520833,1
0.125,3.81968e-19,-0.00416667,1
0.125,3.81968e-19,-0.003125,1
0.125,3.81968e-19,-0.00208333,1
0.125,3.81968e-19,-0.00104166,1
0.125,3.81968e-19,5.54848e-11,1
0.125,3.81968e-19,0.00104167,1
0.125,3.81968e-19,0.00208334,1
0.125,3.81968e-19,0.003125,1
0.125,3.81968e-19,0.00416667,1
0.125,-2.58494e-26,0.00416667,0.999999
0.125,-1.64059e-19,0.00520833,0.999999
0.125,-3.28117e-19,0.00625,0.999996
0.125,-3.28117e-19,0.00729167,0.999996
0.125,-3.28117e-19,0.00833333,0.999975
0.125,-3.28117e-19,0.00937502,0.999975
0.125,-3.28117e-19,0.0104167,0.99983
0.125,-3.28117e-19,0.0114584,0.99983
0.125,-3.28117e-19,0.0125,0.998696
0.125,-3.28117e-19,0.0135417,0.998696
0.125,-3.28117e-19,0.0145834,0.988149
0.125,-3.28117e-19,0.015625,0.988149
0.125,-3.28117e-19,0.0166667,0.882241
0.125,-3.28117e-19,0.0177083,0.882241
0.125,-3.28117e-19,0.01875,0.407462
0.125,-3.28117e-19,0.0197916,0.407462
0.125,-3.28117e-19,0.0208333,0.0493636
0.125,-3.28117e-19,0.021875,0.0493636
0.125,-3.28117e-19,0.0229167,0.00467489
0.125,-3.28117e-19,0.0239583,0.00467489
0.125,-3.28117e-19,0.025,0.0012846
0.125,-3.28117e-19,0.0260417,0.0012846
0.125,-3.28117e-19,0.0270834,0.000351489
0.125,-3.28117e-19,0.028125,0.000351489
0.125,-3.28117e-19,0.0291667,9.40856e-05
0.125,-3.28117e-19,0.0302083,9.40856e-05
0.125,-3.28117e-19,0.03125,2.50338e-05
0.125,-3.28117e-19,0.0322916,2.50338e-05
0.125,-3.28117e-19,0.0333333,6.36428e-06
0.125,-3.28117e-19,0.034375,6.36428e-06
0.125,-3.28117e-19,0.0354166,1.3027e-06
0.125,-3.28117e-19,0.0364583,1.3027e-06
0.125,-3.28117e-19,0.0375,1.3027e-06
0.125,1.29247e-26,0.0375,2.71254e-07
0.125,-2.92664e-19,0.0385417,2.71254e-07
0.125,-5.85328e-19,0.0395834,7.17388e-08
0.125,-5.85328e-19,0.040625,7.17388e-08
0.125,-5.85328e-19,0.0416667,1.83377e-08
0.125,-5.85328e-19,0.0427084,1.83377e-08
0.125,-5.85328e-19,0.04375,4.70914e-09
0.125,-5.85328e-19,0.0447917,4.70914e-09
0.125,-5.85328e-19,0.0458334,2.3742e-09
0.125,-5.85328e-19,0.0468751,2.3742e-09
0.125,-5.85328e-19,0.0479168,1.34049e-09
0.125,-5.85328e-19,0.0489585,1.34049e-09
0.125,-5.85328e-19,0.0500001,1.17322e-09
0.125,-5.85328e-19,0.0510418,1.17322e-09
0.125,-5.85328e-19,0.0520835,1.24171e-09
0.125,-5.85328e-19,0.0531251,1.24171e-09
0.125,-5.85328e-19,0.0541668,1.60142e-09
0.125,-5.85328e-19,0.0552085,1.60142e-09
0.125,-5.85328e-19,0.0562502,2.34681e-09
0.125,-5.85328e-19,0.0572919,2.34681e-09
0.125,-5.85328e-19,0.0583336,2.41546e-09
0.125,-5.85328e-19,0.0593753,2.41546e-09
0.125,-5.85328e-19,0.0604171,1.84022e-09
0.125,-5.85328e-19,0.0614587,1.84022e-09
0.125,-5.85328e-19,0.0625004,9.59651e-10
0.125,-5.85328e-19,0.0635422,9.59651e-10
0.125,-5.85328e-19,0.0645839,7.88781e-10
0.125,-5.85328e-19,0.0656256,7.88781e-10
0.125,-5.85328e-19,0.0666673,3.02346e-09
0.125,-5.85328e-19,0.0677091,3.02346e-09
0.125,-5.85328e-19,0.0687509,4.30778e-08
0.125,-5.85328e-19,0.0697926,4.30778e-08
0.125,-5.85328e-19,0.0708344,7.3881e-08
0.125,-5.85328e-19,0.0718762,7.3881e-08
0.125,-5.85328e-19,0.0729181,6.23392e-08
0.125,-5.85328e-19,0.0739598,6.23392e-08
0.125,-5.85328e-19,0.0750015,1.72659e-08
0.125,-5.85328e-19,0.0760435,1.72659e-08
0.125,-5.85328e-19,0.0770855,2.63291e-09
0.125,-5.85328e-19,0.0781273,2.63291e-09
0.125,-5.85328e-19,0.0791691,2.64464e-09
0.125,-5.85328e-19,0.0812532,2.64464e-09
0.125,-5.85328e-19,0.0833372,2.02087e-09
0.125,-5.85328e-19,0.0875072,2.02087e-09
0.125,-5.85328e-19,0.0916771,2.81096e-09
0.125,-5.85328e-19,0.0924778,2.81096e-09
0.125,-5.85328e-19,0.0932785,5.79496e-08
0.125,-5.85328e-19,0.0966496,5.79496e-08
0.125,-5.85328e-19,0.100021,2.52221e-08
0.125,-5.85326e-19,0.108372,2.52221e-08
0.125,-5.85325e-19,0.116723,2.52221e-08
0.125,8.36112e-08,0.116723,3.73356e-08
0.125,8.36112e-08,0.12508,3.73356e-08
0.125,8.36112e-08,0.133437,2.30811e-08
