x,y,z,alpha.water
0,0.1,-0.125,1
4.33681e-19,0.1,-0.120833,1
-7.18284e-19,0.1,-0.116667,1
8.67362e-19,0.1,-0.116667,1
-6.30193e-19,0.1,-0.1125,1
-5.42101e-19,0.1,-0.108333,1
-6.67885e-19,0.1,-0.104166,1
-7.9367e-19,0.1,-0.1,1
-7.22096e-19,0.1,-0.0958333,1
-6.50521e-19,0.1,-0.0916667,1
-8.67362e-19,0.1,-0.0875,1
-1.0842e-18,0.1,-0.0833333,1
-1.19262e-18,0.1,-0.08125,1
-1.30104e-18,0.1,-0.0791667,1
-1.0842e-18,0.1,-0.078125,1
-8.67362e-19,0.1,-0.0770834,1
-9.75782e-19,0.1,-0.0760417,1
-1.0842e-18,0.1,-0.075,1
-1.02999e-18,0.1,-0.0739583,1
-9.75782e-19,0.1,-0.0729167,1
-8.67362e-19,0.1,-0.071875,1
-7.58942e-19,0.1,-0.0708333,1
-8.13152e-19,0.1,-0.0697917,1
-8.67362e-19,0.1,-0.06875,1
-8.67362e-19,0.1,-0.0677084,1
-8.67362e-19,0.1,-0.0666667,1
-8.67362e-19,0.1,-0.065625,1
-8.67362e-19,0.1,-0.0645834,1
-9.75782e-19,0.1,-0.0635417,1
-1.0842e-18,0.1,-0.0625,1
-1.02999e-18,0.1,-0.0614583,1
-9.75782e-19,0.1,-0.0604167,1
-9.21572e-19,0.1,-0.059375,1
-8.67362e-19,0.1,-0.0583333,1
-9.21572e-19,0.1,-0.0572917,1
-9.75782e-19,0.1,-0.05625,1
-9.75782e-19,0.1,-0.0552084,1
-9.75782e-19,0.1,-0.0541667,1
-8.13152e-19,0.1,-0.053125,1
-6.50521e-19,0.1,-0.0520833,1
-6.50521e-19,0.1,-0.0510417,1
-6.50521e-19,0.1,-0.05,1
-4.33681e-19,0.1,-0.0489584,1
-2.1684e-19,0.1,-0.0479167,1
-4.16846e-19,0.1,-0.046875,1
-6.16852e-19,0.1,-0.0458333,1
-5.25266e-19,0.1,-0.0447917,1
-4.33681e-19,0.1,-0.04375,1
-3.79471e-19,0.1,-0.0427083,1
-3.25261e-19,0.1,-0.0416667,1
-3.25261e-19,0.1,-0.040625,1
-3.25261e-19,0.1,-0.0395834,1
-3.25261e-19,0.1,-0.0385417,1
-3.25261e-19,0.1,-0.0375,1
-2.71051e-19,0.1,-0.0364584,1
-2.1684e-19,0.1,-0.0354167,1
-3.25261e-19,0.1,-0.034375,1
-4.33681e-19,0.1,-0.0333333,0.999998
-4.33681e-19,0.1,-0.0322917,0.999998
-4.33681e-19,0.1,-0.03125,1
-4.33681e-19,0.1,-0.0302083,1
-4.33681e-19,0.1,-0.0291667,1
-4.33681e-19,0.1,-0.028125,1
-4.33681e-19,0.1,-0.0270833,1
-4.33681e-19,0.1,-0.0260417,1
-4.33681e-19,0.1,-0.025,1
-4.33681e-19,0.1,-0.0239583,1
-4.33681e-19,0.1,-0.0229167,1
-4.24972e-19,0.1,-0.021875,1
-4.16264e-19,0.1,-0.0208333,1
-3.70762e-19,0.1,-0.0197916,1
-3.25261e-19,0.1,-0.01875,1
-3.25261e-19,0.1,-0.0177083,1
-3.25261e-19,0.1,-0.0166667,1
-3.25261e-19,0.1,-0.015625,1
-3.25261e-19,0.1,-0.0145834,0.999999
-4.33681e-19,0.1,-0.0135417,0.999999
-7.99176e-19,0.1,-0.0125,0.999991
-5.42101e-19,0.1,-0.0125,0.999999
-9.95899e-19,0.1,-0.0114583,0.999991
-1.19262e-18,0.1,-0.0104167,0.999902
-1.18331e-18,0.1,-0.00937501,0.999902
-1.17399e-18,0.1,-0.00833333,0.999902
-4.04882e-19,0.1,-0.00833333,0.99868
-5.27702e-19,0.1,-0.00729167,0.99868
-6.50521e-19,0.1,-0.00625,0.9777
-6.50521e-19,0.1,-0.00520834,0.9777
-6.50521e-19,0.1,-0.00416667,0.728455
-6.50521e-19,0.1,-0.003125,0.728455
-6.50521e-19,0.1,-0.00208333,0.206565
-7.04731e-19,0.1,-0.00104166,0.206565
-7.58942e-19,0.1,8.26923e-11,0.0198539
-7.58942e-19,0.1,0.00104167,0.0198539
-7.58942e-19,0.1,0.00208334,0.000643421
-7.04731e-19,0.1,0.003125,0.000643421
-6.50521e-19,0.1,0.00416667,4.57999e-05
-6.50521e-19,0.1,0.00520833,4.57999e-05
-6.50521e-19,0.1,0.00625,6.59617e-06
-6.50521e-19,0.1,0.00729166,6.59617e-06
-6.50521e-19,0.1,0.00833333,9.44694e-07
-6.50521e-19,0.1,0.00937501,9.44694e-07
-6.50521e-19,0.1,0.0104167,1.14743e-07
-7.20904e-19,0.1,0.0114583,1.14743e-07
-7.91288e-19,0.1,0.0125,1.12338e-08
-8.29325e-19,0.1,0.0135417,1.12338e-08
-8.67362e-19,0.1,0.0145834,1.10883e-09
-8.67362e-19,0.1,0.015625,1.10883e-09
-8.67362e-19,0.1,0.0166667,9.93557e-11
-8.67362e-19,0.1,0.0177083,9.93557e-11
-8.67362e-19,0.1,0.01875,5.20826e-11
-8.29298e-19,0.1,0.0197916,5.20826e-11
-7.91235e-19,0.1,0.0208333,5.74831e-11
-7.75088e-19,0.1,0.021875,5.74831e-11
-7.58942e-19,0.1,0.0229167,3.50054e-11
-7.58942e-19,0.1,0.0239583,3.50054e-11
-7.58942e-19,0.1,0.025,1.7007e-11
-7.58942e-19,0.1,0.0260417,1.7007e-11
-7.58942e-19,0.1,0.0270833,8.6582e-12
-7.04731e-19,0.1,0.028125,8.6582e-12
-6.50521e-19,0.1,0.0291667,4.80931e-12
-6.50521e-19,0.1,0.0302083,4.80931e-12
-6.50521e-19,0.1,0.03125,2.64751e-12
-6.50521e-19,0.1,0.0322917,2.64751e-12
-6.50521e-19,0.1,0.0333333,1.28052e-12
-5.96311e-19,0.1,0.034375,1.28052e-12
-5.42101e-19,0.1,0.0354166,5.10163e-13
-7.04731e-19,0.1,0.0364583,5.10163e-13
-8.67362e-19,0.1,0.0375,1.68597e-13
-8.13152e-19,0.1,0.0385417,1.68597e-13
-7.58942e-19,0.1,0.0395833,4.77275e-14
-7.04731e-19,0.1,0.040625,4.77275e-14
-6.50521e-19,0.1,0.0416667,1.17888e-14
-4.87891e-19,0.1,0.0427084,1.17888e-14
-3.25261e-19,0.1,0.04375,2.6054e-15
-4.87891e-19,0.1,0.0447917,2.6054e-15
-6.50521e-19,0.1,0.0458334,5.63939e-16
-8.67362e-19,0.1,0.0468751,5.63939e-16
-1.0842e-18,0.1,0.0479168,1.40088e-16
-1.13841e-18,0.1,0.0489584,1.40088e-16
-1.19262e-18,0.1,0.0500001,4.33887e-17
-1.0842e-18,0.1,0.0510418,4.33887e-17
-9.75782e-19,0.1,0.0520835,1.54545e-17
-9.33642e-19,0.1,0.0531252,1.54545e-17
-8.91502e-19,0.1,0.0541669,5.60961e-18
-8.25222e-19,0.1,0.0552086,5.60961e-18
-7.58942e-19,0.1,0.0562504,1.9345e-18
-6.50521e-19,0.1,0.057292,1.9345e-18
-5.42101e-19,0.1,0.0583337,6.21257e-19
-5.96311e-19,0.1,0.0593754,6.21257e-19
-6.50521e-19,0.1,0.0604171,1.87756e-19
-4.87891e-19,0.1,0.0614589,1.87756e-19
-3.25261e-19,0.1,0.0625006,5.4637e-20
-3.25261e-19,0.1,0.0635424,5.4637e-20
-3.25261e-19,0.1,0.0645841,1.55905e-20
-1.6263e-19,0.1,0.0656259,1.55905e-20
0,0.1,0.0666676,4.38416e-21
-1.0842e-19,0.1,0.0677095,4.38416e-21
-2.1684e-19,0.1,0.0687513,1.20896e-21
-3.25261e-19,0.1,0.0697931,1.20896e-21
-4.33681e-19,0.1,0.0708348,3.2562e-22
-3.79471e-19,0.1,0.0718767,3.2562e-22
-3.25261e-19,0.1,0.0729186,8.79474e-23
-4.33681e-19,0.1,0.0739605,8.79474e-23
-5.42101e-19,0.1,0.0750023,2.84489e-23
-5.42101e-19,0.1,0.0760443,2.84489e-23
-5.42101e-19,0.1,0.0770863,1.59984e-23
-5.42101e-19,0.1,0.0781282,1.59984e-23
-5.42101e-19,0.1,0.0791702,1.36435e-23
-7.31836e-19,0.1,0.0812547,1.36435e-23
-9.21572e-19,0.1,0.0833391,1.83311e-23
-9.48677e-19,0.1,0.0875101,1.83311e-23
-9.75782e-19,0.1,0.091681,1.83311e-23
-2.23617e-19,0.1,0.091681,1.42735e-23
-4.77303e-19,0.1,0.0958523,1.42735e-23
-7.30989e-19,0.1,0.100024,4.64788e-23
6.81862e-20,0.1,0.108385,4.64788e-23
8.67362e-19,0.1,0.116746,6.12537e-24
7.31836e-19,0.1,0.125111,6.12537e-24
5.96311e-19,0.1,0.133476,3.91143e-25
