x,y,z,alpha.water
0.15,-1.65436e-24,-0.125,1
0.15,1.65436e-24,-0.125,1
0.15,2.25877e-19,-0.120833,1
0.15,4.51753e-19,-0.116667,1.00001
0.15,4.5175e-19,-0.1125,1.00001
0.15,4.51746e-19,-0.108333,1.00001
0.15,4.51742e-19,-0.104166,1.00001
0.15,4.51737e-19,-0.1,1.00001
0.15,4.51736e-19,-0.0958333,1.00001
0.15,4.51735e-19,-0.0916667,1.00001
0.15,4.51737e-19,-0.0875,1.00001
0.15,4.51738e-19,-0.0833333,1.00001
0.15,4.51739e-19,-0.08125,1.00001
0.15,4.5174e-19,-0.0791667,1.00001
0.15,4.5174e-19,-0.0781251,1.00001
0.15,4.5174e-19,-0.0770836,1.00001
0.15,4.5174e-19,-0.0760418,1.00001
0.15,4.5174e-19,-0.075,1.00001
0.15,4.51739e-19,-0.0739584,1.00001
0.15,4.51739e-19,-0.0729167,1.00001
0.15,4.51739e-19,-0.071875,1.00001
0.15,4.5174e-19,-0.0708333,1.00001
0.15,4.5174e-19,-0.0697917,1.00001
0.15,4.51739e-19,-0.0687501,1.00001
0.15,4.5174e-19,-0.0677084,1.00001
0.15,4.51742e-19,-0.0666667,1.00001
0.15,4.51741e-19,-0.065625,1.00001
0.15,4.5174e-19,-0.0645834,1.00001
0.15,4.5174e-19,-0.0635417,1.00001
0.15,4.51741e-19,-0.0625,1.00001
0.15,4.51741e-19,-0.0614583,1.00001
0.15,4.5174e-19,-0.0604167,1.00001
0.15,4.51739e-19,-0.059375,1.00001
0.15,4.51739e-19,-0.0583333,1.00001
0.15,4.51739e-19,-0.0572917,1.00001
0.15,4.51739e-19,-0.05625,1.00001
0.15,4.51739e-19,-0.0552084,1.00001
0.15,4.5174e-19,-0.0541667,1.00001
0.15,4.5174e-19,-0.053125,1.00001
0.15,4.5174e-19,-0.0520834,1.00001
0.15,4.5174e-19,-0.0510417,1.00001
0.15,4.5174e-19,-0.05,1.00001
0.15,4.5174e-19,-0.0489583,1.00001
0.15,4.51739e-19,-0.0479167,1.00001
0.15,4.51739e-19,-0.046875,1.00001
0.15,4.51739e-19,-0.0458333,1.00001
0.15,4.51739e-19,-0.0447916,1.00001
0.15,4.51739e-19,-0.04375,1.00001
0.15,4.51739e-19,-0.0427083,1.00001
0.15,4.51739e-19,-0.0416667,1.00001
0.15,4.51739e-19,-0.040625,1.00001
0.15,4.51739e-19,-0.0395834,1.00001
0.15,4.51739e-19,-0.0385417,1.00001
0.15,4.51739e-19,-0.0375,1.00001
0.15,4.51739e-19,-0.0364583,1.00001
0.15,4.51739e-19,-0.0354166,1.00001
0.15,4.51739e-19,-0.034375,1.00001
0.15,4.51739e-19,-0.0333333,1.00001
0.15,4.51739e-19,-0.0322916,1.00001
0.15,0,-0.03125,1
0.15,4.51739e-19,-0.03125,1.00001
0.15,-4.32483e-19,-0.0302084,1
0.15,-8.64966e-19,-0.0291667,1
0.15,-8.64966e-19,-0.0281251,1
0.15,-8.64966e-19,-0.0270834,1
0.15,-8.64966e-19,-0.0260417,1
0.15,-8.64966e-19,-0.025,1
0.15,-8.64966e-19,-0.0244698,1
0.15,-8.64966e-19,-0.0239395,1
0.15,-8.64966e-19,-0.0234281,1
0.15,-8.64966e-19,-0.0229166,0.999998
0.15,-8.64966e-19,-0.021875,0.999998
0.15,-8.64966e-19,-0.0208333,0.999991
0.15,-8.64966e-19,-0.0201911,0.999991
0.15,-8.64966e-19,-0.019549,0.999991
0.15,-8.64966e-19,-0.0191495,0.999991
0.15,-8.64966e-19,-0.01875,0.999966
0.15,-8.64966e-19,-0.0177084,0.999966
0.15,-8.64966e-19,-0.0166667,0.999878
0.15,-8.64966e-19,-0.0156251,0.999878
0.15,-8.64966e-19,-0.0145834,0.999582
0.15,-8.64966e-19,-0.0136291,0.999582
0.15,-8.64966e-19,-0.0126749,0.999582
0.15,-8.64966e-19,-0.0125874,0.999582
0.15,-8.64966e-19,-0.0125,0.998604
0.15,-8.64966e-19,-0.0124043,0.998604
0.15,-8.64966e-19,-0.0123085,0.998604
0.15,-8.64966e-19,-0.0113626,0.998604
0.15,-8.64966e-19,-0.0104167,0.995737
0.15,-8.64966e-19,-0.00937501,0.995737
0.15,-8.64966e-19,-0.00833333,0.984839
0.15,-8.64966e-19,-0.00729166,0.984839
0.15,-8.64966e-19,-0.00624999,0.856049
0.15,-8.64967e-19,-0.00520833,0.856049
0.15,-8.64967e-19,-0.00416667,0.372244
0.15,-8.64967e-19,-0.003125,0.372244
0.15,-8.64966e-19,-0.00208333,0.0656866
0.15,-8.64967e-19,-0.00104166,0.0656866
0.15,-8.64967e-19,2.96638e-11,0.0116655
0.15,-8.64967e-19,0.00104167,0.0116655
0.15,-8.64967e-19,0.00208333,0.0116655
0.15,0,0.00208333,0.00159758
0.15,-2.74691e-19,0.003125,0.00159758
0.15,-5.49381e-19,0.00416667,0.000173627
0.15,-5.49381e-19,0.00520833,0.000173627
0.15,-5.49381e-19,0.00624999,1.99222e-05
0.15,-5.49381e-19,0.00729166,1.99222e-05
0.15,-5.49381e-19,0.00833333,2.18136e-06
0.15,-5.49381e-19,0.00937502,2.18136e-06
0.15,-5.49381e-19,0.0104167,2.37913e-07
0.15,-5.49381e-19,0.0114584,2.37913e-07
0.15,-5.49381e-19,0.0125,2.51715e-08
0.15,-5.49381e-19,0.0135417,2.51715e-08
0.15,-5.49381e-19,0.0145834,3.44718e-09
0.15,-5.49381e-19,0.015625,3.44718e-09
0.15,-5.49381e-19,0.0166667,1.33545e-09
0.15,-5.49381e-19,0.0177083,1.33545e-09
0.15,-5.49381e-19,0.01875,1.10244e-09
0.15,-5.49381e-19,0.0197916,1.10244e-09
0.15,-5.49381e-19,0.0208333,1.50742e-09
0.15,-5.49381e-19,0.021875,1.50742e-09
0.15,-5.49381e-19,0.0229166,2.13997e-09
0.15,-5.49381e-19,0.0239583,2.13997e-09
0.15,-5.49381e-19,0.025,2.33463e-09
0.15,-5.49381e-19,0.0260417,2.33463e-09
0.15,-5.49381e-19,0.0270834,1.67838e-09
0.15,-5.49381e-19,0.028125,1.67838e-09
0.15,-5.49381e-19,0.0291667,9.16602e-10
0.15,-5.49381e-19,0.0302084,9.16602e-10
0.15,-5.49381e-19,0.03125,6.26418e-10
0.15,-5.49381e-19,0.0322917,6.26418e-10
0.15,-5.49381e-19,0.0333333,5.62617e-10
0.15,-5.49381e-19,0.034375,5.62617e-10
0.15,-5.49381e-19,0.0354167,5.30143e-10
0.15,-5.49381e-19,0.0364584,5.30143e-10
0.15,-5.49381e-19,0.0375,5.30143e-10
0.15,1.29247e-26,0.0375,4.53155e-10
0.15,3.03221e-19,0.0385417,4.53155e-10
0.15,6.06442e-19,0.0395834,3.62572e-10
0.15,6.06442e-19,0.040625,3.62572e-10
0.15,6.06442e-19,0.0416667,3.04627e-10
0.15,6.06442e-19,0.0427084,3.04627e-10
0.15,6.06442e-19,0.0437501,2.70475e-10
0.15,6.06442e-19,0.0447917,2.70475e-10
0.15,6.06442e-19,0.0458334,2.46068e-10
0.15,6.06442e-19,0.0468751,2.46068e-10
0.15,6.06442e-19,0.0479167,2.27801e-10
0.15,6.06442e-19,0.0489584,2.27801e-10
0.15,6.06442e-19,0.05,2.15654e-10
0.15,6.06442e-19,0.0510417,2.15654e-10
0.15,6.06442e-19,0.0520834,2.08238e-10
0.15,6.06442e-19,0.0531251,2.08238e-10
0.15,6.06442e-19,0.0541667,2.03879e-10
0.15,6.06442e-19,0.0552084,2.03879e-10
0.15,6.06442e-19,0.0562501,2.01488e-10
0.15,6.06442e-19,0.0572918,2.01488e-10
0.15,6.06442e-19,0.0583335,2.00355e-10
0.15,6.06442e-19,0.0593752,2.00355e-10
0.15,6.06442e-19,0.0604168,1.99879e-10
0.15,6.06442e-19,0.0614585,1.99879e-10
0.15,6.06442e-19,0.0625002,1.99736e-10
0.15,6.06442e-19,0.0635419,1.99736e-10
0.15,6.06441e-19,0.0645836,2.00483e-10
0.15,6.06442e-19,0.0656253,2.00483e-10
0.15,6.06442e-19,0.066667,2.02587e-10
0.15,6.06441e-19,0.0677088,2.02587e-10
0.15,6.06441e-19,0.0687505,2.06019e-10
0.15,6.06441e-19,0.0697922,2.06019e-10
0.15,6.06442e-19,0.0708338,2.12861e-10
0.15,6.06441e-19,0.0718756,2.12861e-10
0.15,6.06441e-19,0.0729174,2.26468e-10
0.15,6.06441e-19,0.0739591,2.26468e-10
0.15,6.06441e-19,0.0750008,2.48092e-10
0.15,6.06441e-19,0.0760427,2.48092e-10
0.15,6.06441e-19,0.0770845,2.76587e-10
0.15,6.06441e-19,0.0781262,2.76587e-10
0.15,6.06441e-19,0.0791679,3.38301e-10
0.15,6.06441e-19,0.0812516,3.38301e-10
0.15,6.06442e-19,0.0833353,5.10799e-10
0.15,6.06442e-19,0.0875038,5.10799e-10
0.15,6.06443e-19,0.0916723,9.3411e-10
0.15,6.06444e-19,0.0958415,9.3411e-10
0.15,6.06446e-19,0.100011,2.65272e-09
0.15,6.06445e-19,0.10204,2.65272e-09
0.15,6.06444e-19,0.10407,3.06364e-09
0.15,6.06444e-19,0.110384,3.06364e-09
0.15,6.06444e-19,0.116699,3.06364e-09
0.15,8.37312e-08,0.116699,6.17307e-09
0.15,8.37312e-08,0.125046,6.17307e-09
0.15,8.37312e-08,0.133394,9.19172e-09
