# Force       
# CofR        : (0.000000e+00 0.000000e+00 0.000000e+00)
#
# Time        	total_x total_y total_z	pressure_x pressure_y pressure_z	viscous_x viscous_y viscous_z
0.31           2.436436e-01 -8.722561e-02 1.689308e+00 2.427712e-01 -8.718864e-02 1.688495e+00 8.724234e-04 -3.697004e-05 8.125003e-04
