# Force       
# CofR        : (0.000000e+00 0.000000e+00 0.000000e+00)
#
# Time        	total_x total_y total_z	pressure_x pressure_y pressure_z	viscous_x viscous_y viscous_z
0.305          3.564397e-01 -1.766801e-01 2.693769e+00 3.555862e-01 -1.766437e-01 2.692941e+00 8.534798e-04 -3.641079e-05 8.280447e-04
0.31           1.220881e-01 1.759293e-01 6.524130e-01 1.212256e-01 1.759328e-01 6.516153e-01 8.625188e-04 -3.489795e-06 7.977648e-04
0.315          1.198738e-01 1.741616e-01 6.546425e-01 1.190032e-01 1.741318e-01 6.538749e-01 8.706540e-04 2.982285e-05 7.675715e-04
0.32           1.175674e-01 -2.265083e-01 6.569139e-01 1.166895e-01 -2.264957e-01 6.561764e-01 8.779422e-04 -1.260486e-05 7.374756e-04
0.325          1.152459e-01 -1.960522e-01 6.592307e-01 1.143616e-01 -1.960019e-01 6.585231e-01 8.842775e-04 -5.035106e-05 7.075919e-04
0.33           1.125228e-01 3.076273e-01 6.611147e-01 1.116331e-01 3.076201e-01 6.604370e-01 8.896685e-04 7.202498e-06 6.777232e-04
0.335          1.096478e-01 2.039061e-01 6.637539e-01 1.087537e-01 2.038596e-01 6.631056e-01 8.941828e-04 4.648558e-05 6.482953e-04
0.34           1.065906e-01 -4.057454e-01 6.660724e-01 1.056928e-01 -4.057157e-01 6.654533e-01 8.977643e-04 -2.973741e-05 6.191656e-04
