# Moment      
# CofR        : (0.000000e+00 0.000000e+00 0.000000e+00)
#
# Time        	total_x total_y total_z	pressure_x pressure_y pressure_z	viscous_x viscous_y viscous_z
0.305          5.891867e-02 1.397976e-01 3.137530e-09 5.890659e-02 1.394859e-01 -1.094611e-09 1.208384e-05 3.117348e-04 4.232142e-09
0.31           -5.874310e-02 4.734468e-02 2.946306e-09 -5.874424e-02 4.702885e-02 1.088972e-09 1.142932e-06 3.158275e-04 1.857334e-09
0.315          -5.821554e-02 4.673370e-02 9.070538e-09 -5.820560e-02 4.641413e-02 2.427329e-09 -9.936079e-06 3.195727e-04 6.643208e-09
0.32           7.574866e-02 4.608092e-02 4.669084e-09 7.574448e-02 4.575793e-02 -3.732366e-10 4.183312e-06 3.229903e-04 5.042321e-09
0.325          6.561674e-02 4.541631e-02 -7.741380e-09 6.559999e-02 4.509026e-02 -3.721202e-09 1.675344e-05 3.260467e-04 -4.020179e-09
0.33           -1.030031e-01 4.459914e-02 -2.638565e-09 -1.030007e-01 4.427038e-02 6.978847e-10 -2.409678e-06 3.287516e-04 -3.336450e-09
0.335          -6.831750e-02 4.373601e-02 1.079769e-08 -6.830200e-02 4.340489e-02 4.883333e-09 -1.550036e-05 3.311167e-04 5.914357e-09
0.34           1.360437e-01 4.279582e-02 1.364891e-09 1.360338e-01 4.246269e-02 -9.547300e-10 9.914509e-06 3.331288e-04 2.319621e-09
