# Moment      
# CofR        : (0.000000e+00 0.000000e+00 0.000000e+00)
#
# Time        	total_x total_y total_z	pressure_x pressure_y pressure_z	viscous_x viscous_y viscous_z
0.31           2.910618e-02 9.512288e-02 -1.345763e-09 2.909389e-02 9.480357e-02 -1.126545e-09 1.229038e-05 3.193169e-04 -2.192182e-10
