# Force       
# CofR        : (0.000000e+00 0.000000e+00 0.000000e+00)
#
# Time        	total_x total_y total_z	pressure_x pressure_y pressure_z	viscous_x viscous_y viscous_z
0.000319904    4.926149e-02 -6.199915e-04 9.982264e-01 4.926116e-02 -6.199870e-04 9.976310e-01 3.260399e-07 -4.531484e-09 5.953914e-04
0.000463651    5.669408e-03 2.419042e-03 1.929126e-01 5.669052e-03 2.419033e-03 1.923209e-01 3.555810e-07 8.621579e-09 5.917031e-04
0.000636346    2.547359e-02 -2.009512e-04 5.132740e-01 2.547307e-02 -2.009584e-04 5.126816e-01 5.206529e-07 7.215829e-09 5.924630e-04
0.000843726    2.554478e-02 -3.113115e-03 4.975882e-01 2.554406e-02 -3.113098e-03 4.969951e-01 7.193054e-07 -1.730396e-08 5.930732e-04
0.001093       2.558430e-02 1.120017e-03 4.881591e-01 2.558334e-02 1.120024e-03 4.875655e-01 9.583026e-07 -6.753270e-09 5.935809e-04
0.00139243     2.564478e-02 3.795054e-03 4.823170e-01 2.564354e-02 3.795018e-03 4.817229e-01 1.245842e-06 3.612834e-08 5.940207e-04
0.00175131     2.572325e-02 -2.603166e-03 4.786500e-01 2.572166e-02 -2.603167e-03 4.780556e-01 1.591258e-06 6.307270e-10 5.944170e-04
0.00218006     2.581470e-02 -4.283266e-03 4.763151e-01 2.581269e-02 -4.283197e-03 4.757203e-01 2.005515e-06 -6.881040e-08 5.947874e-04
0.0026964      2.579492e-02 4.695050e-03 4.747815e-01 2.579242e-02 4.695027e-03 4.741863e-01 2.503446e-06 2.282845e-08 5.951468e-04
0.00331333     2.593326e-02 4.318503e-03 4.738191e-01 2.593016e-02 4.318379e-03 4.732236e-01 3.102580e-06 1.234875e-07 5.955039e-04
0.00405757     2.590690e-02 -7.482435e-03 4.731952e-01 2.590308e-02 -7.482348e-03 4.725993e-01 3.824572e-06 -8.714406e-08 5.958677e-04
0.00494492     2.613088e-02 -3.588274e-03 4.728362e-01 2.612618e-02 -3.588067e-03 4.722400e-01 4.693984e-06 -2.073586e-07 5.962392e-04
0.00599737     2.631196e-02 1.101426e-02 4.726547e-01 2.630622e-02 1.101403e-02 4.720581e-01 5.732979e-06 2.304745e-07 5.966169e-04
0.0072603      2.629093e-02 1.520826e-03 4.726066e-01 2.628395e-02 1.520522e-03 4.720096e-01 6.981718e-06 3.040618e-07 5.970005e-04
0.00874098     2.672389e-02 -1.519052e-02 4.726634e-01 2.671542e-02 -1.518998e-02 4.720660e-01 8.472031e-06 -5.444056e-07 5.973701e-04
0.0104684      2.698044e-02 2.223087e-03 4.728224e-01 2.697021e-02 2.223488e-03 4.722247e-01 1.023097e-05 -4.006826e-07 5.977081e-04
0.012455       2.735307e-02 2.004854e-02 4.730561e-01 2.734078e-02 2.004744e-02 4.724582e-01 1.228911e-05 1.102515e-06 5.979844e-04
0.0146753      2.799293e-02 -8.434908e-03 4.733335e-01 2.797828e-02 -8.435310e-03 4.727354e-01 1.464212e-05 4.021131e-07 5.981582e-04
0.0170436      2.891991e-02 -2.631754e-02 4.736202e-01 2.890268e-02 -2.631558e-02 4.730221e-01 1.723246e-05 -1.957002e-06 5.981895e-04
0.0194119      3.017851e-02 1.846803e-02 4.738433e-01 3.015858e-02 1.846835e-02 4.732452e-01 1.993087e-05 -3.227570e-07 5.980552e-04
0.0217802      3.054536e-02 3.462747e-02 4.741609e-01 3.052271e-02 3.462470e-02 4.735631e-01 2.265417e-05 2.772094e-06 5.977749e-04
0.0241486      3.094066e-02 -3.616574e-02 4.744804e-01 3.091525e-02 -3.616528e-02 4.738831e-01 2.541831e-05 -4.539533e-07 5.973508e-04
0.0265169      3.124809e-02 -4.197303e-02 4.748018e-01 3.121988e-02 -4.196883e-02 4.742050e-01 2.820835e-05 -4.200912e-06 5.967824e-04
0.0288852      3.169841e-02 6.396358e-02 4.751132e-01 3.166737e-02 6.396208e-02 4.745171e-01 3.103794e-05 1.500413e-06 5.960679e-04
0.0312535      3.200247e-02 4.592640e-02 4.754532e-01 3.196858e-02 4.592080e-02 4.748580e-01 3.389372e-05 5.594817e-06 5.952169e-04
0.0336218      3.249867e-02 -1.061059e-01 4.757682e-01 3.246189e-02 -1.061021e-01 4.751739e-01 3.678885e-05 -3.867985e-06 5.942207e-04
0.0359901      3.281429e-02 -4.103132e-02 4.761121e-01 3.277457e-02 -4.102379e-02 4.755190e-01 3.971527e-05 -7.531154e-06 5.930918e-04
0.0383584      3.332129e-02 1.671687e-01 4.764116e-01 3.327860e-02 1.671613e-01 4.758197e-01 4.268343e-05 7.366425e-06 5.918180e-04
0.0407267      3.368364e-02 1.825185e-02 4.767522e-01 3.363796e-02 1.824285e-02 4.761618e-01 4.568456e-05 9.003334e-06 5.904109e-04
0.0430951      3.414952e-02 -2.516335e-01 4.770653e-01 3.410080e-02 -2.516200e-01 4.764764e-01 4.872257e-05 -1.341351e-05 5.888651e-04
0.0454634      3.489848e-02 3.730395e-02 4.773637e-01 3.484668e-02 3.731408e-02 4.767765e-01 5.179672e-05 -1.013420e-05 5.871757e-04
0.0478317      3.490670e-02 3.623096e-01 4.777239e-01 3.485180e-02 3.622875e-01 4.771386e-01 5.489986e-05 2.213266e-05 5.853660e-04
0.0502         3.560074e-02 -1.469536e-01 4.779169e-01 3.554267e-02 -1.469626e-01 4.773335e-01 5.807457e-05 9.033412e-06 5.833861e-04
0.0524727      3.642846e-02 -5.117496e-01 4.782020e-01 3.636729e-02 -5.117150e-01 4.776207e-01 6.116781e-05 -3.466750e-05 5.813709e-04
0.0545478      3.812420e-02 3.373067e-01 4.775966e-01 3.806015e-02 3.373150e-01 4.770174e-01 6.404642e-05 -8.344477e-06 5.792301e-04
0.0568304      3.534138e-02 6.263585e-01 4.796754e-01 3.527432e-02 6.263132e-01 4.790982e-01 6.705606e-05 4.537028e-05 5.771812e-04
0.0588957      3.928433e-02 -6.190704e-01 4.776629e-01 3.921438e-02 -6.190677e-01 4.770881e-01 6.994972e-05 -2.675689e-06 5.747431e-04
0.0611903      3.607810e-02 -7.107044e-01 4.808554e-01 3.600508e-02 -7.106405e-01 4.802828e-01 7.302735e-05 -6.393946e-05 5.725914e-04
0.0631408      4.231011e-02 1.060831e+00 4.765691e-01 4.223467e-02 1.060817e+00 4.759993e-01 7.543912e-05 1.412832e-05 5.697746e-04
0.0653208      3.704615e-02 6.822708e-01 4.813877e-01 3.696769e-02 6.822008e-01 4.808202e-01 7.845997e-05 6.999898e-05 5.675225e-04
0.0672585      4.257986e-02 -1.726397e+00 4.782317e-01 4.249907e-02 -1.726341e+00 4.776669e-01 8.079736e-05 -5.600073e-05 5.647729e-04
0.0693174      3.897034e-02 -4.934426e-01 4.822355e-01 3.888659e-02 -4.933485e-01 4.816730e-01 8.375142e-05 -9.411147e-05 5.625346e-04
0.071134       4.252452e-02 2.751207e+00 4.758521e-01 4.243843e-02 2.751114e+00 4.752928e-01 8.609214e-05 9.368737e-05 5.593233e-04
0.0729506      4.146998e-02 -1.258805e-02 4.807818e-01 4.138172e-02 -1.268047e-02 4.802249e-01 8.825677e-05 9.241599e-05 5.568551e-04
0.0747672      4.201761e-02 -4.046404e+00 4.861688e-01 4.192685e-02 -4.046220e+00 4.856135e-01 9.075363e-05 -1.835789e-04 5.553212e-04
0.0759783      4.276815e-02 -7.666250e-02 4.773515e-01 4.267539e-02 -7.647587e-02 4.767983e-01 9.276442e-05 -1.866266e-04 5.532162e-04
0.0772531      3.893193e-02 6.438550e+00 4.613192e-01 3.883739e-02 6.438428e+00 4.607703e-01 9.454176e-05 1.211829e-04 5.489351e-04
0.0786873      4.079304e-02 -2.177123e+00 4.862894e-01 4.069662e-02 -2.177127e+00 4.857420e-01 9.642161e-05 4.163049e-06 5.474192e-04
0.0803421      4.251567e-02 -7.953618e+00 5.532630e-01 4.241665e-02 -7.953128e+00 5.527060e-01 9.901935e-05 -4.898261e-04 5.569749e-04
0.0808647      3.005347e-02 -2.938120e+00 5.123361e-01 2.995330e-02 -2.937575e+00 5.117780e-01 1.001695e-04 -5.453871e-04 5.580854e-04
0.0813605      2.819244e-02 1.724401e+01 2.680275e-01 2.809175e-02 1.724423e+01 2.674803e-01 1.006890e-04 -2.239834e-04 5.471721e-04
0.0819492      5.353472e-02 -4.325106e+00 5.576670e-01 5.343315e-02 -4.324788e+00 5.571164e-01 1.015700e-04 -3.183760e-04 5.505738e-04
0.0826252      5.463256e-02 -2.075103e+01 9.032931e-01 5.452981e-02 -2.075018e+01 9.027155e-01 1.027462e-04 -8.435951e-04 5.776205e-04
0.0829568      2.871835e-02 -1.539110e+00 5.661847e-01 2.861498e-02 -1.538250e+00 5.656044e-01 1.033731e-04 -8.606402e-04 5.803100e-04
0.0832949      2.251443e-02 3.746680e+01 -3.430465e-01 2.241081e-02 3.746718e+01 -3.435995e-01 1.036175e-04 -3.848810e-04 5.530357e-04
0.0836974      8.260060e-02 -1.427486e+01 8.708318e-01 8.249634e-02 -1.427426e+01 8.702642e-01 1.042553e-04 -5.990160e-04 5.675328e-04
0.0841434      8.435083e-02 -4.543304e+01 1.902047e+00 8.424531e-02 -4.543168e+01 1.901418e+00 1.055239e-04 -1.357993e-03 6.290154e-04
0.0843547      2.004698e-02 7.659374e+00 3.792071e-01 1.994127e-02 7.660669e+00 3.785798e-01 1.057121e-04 -1.294633e-03 6.272788e-04
0.0845843      -1.465909e-02 7.408954e+01 -1.920876e+00 -1.476465e-02 7.409020e+01 -1.921450e+00 1.055557e-04 -6.556120e-04 5.740214e-04
0.0848583      1.051610e-01 -4.123869e+01 2.046415e+00 1.050546e-01 -4.123761e+01 2.045800e+00 1.064228e-04 -1.076821e-03 6.151133e-04
0.0851372      1.485955e-01 -9.250959e+01 4.415020e+00 1.484876e-01 -9.250755e+01 4.414298e+00 1.078620e-04 -2.042910e-03 7.221067e-04
0.0852793      -1.985231e-02 5.384963e+01 -1.519368e+00 -1.996013e-02 5.385138e+01 -1.520064e+00 1.078109e-04 -1.752700e-03 6.954520e-04
0.085438       -8.079227e-02 1.263403e+02 -4.929972e+00 -8.089957e-02 1.263413e+02 -4.930585e+00 1.072995e-04 -9.993074e-04 6.128705e-04
0.0856273      2.258578e-01 -1.209303e+02 6.356499e+00 2.257491e-01 -1.209285e+02 6.355779e+00 1.086513e-04 -1.853847e-03 7.203105e-04
0.0857874      2.746491e-01 -1.788552e+02 1.004609e+01 2.745388e-01 -1.788523e+02 1.004522e+01 1.102626e-04 -2.924681e-03 8.697060e-04
0.0858875      -2.534120e-01 2.312842e+02 -1.122139e+01 -2.535215e-01 2.312863e+02 -1.122215e+01 1.094268e-04 -2.053494e-03 7.577737e-04
0.086003       -1.448178e-01 1.647729e+02 -8.154390e+00 -1.449266e-01 1.647742e+02 -8.155052e+00 1.087690e-04 -1.338369e-03 6.620184e-04
0.0861408      5.891169e-01 -3.581742e+02 2.149546e+01 5.890054e-01 -3.581710e+02 2.149451e+01 1.115450e-04 -3.184215e-03 9.423621e-04
0.0862327      5.419751e-01 -3.292126e+02 2.172683e+01 5.418617e-01 -3.292083e+02 2.172570e+01 1.133864e-04 -4.312573e-03 1.132971e-03
0.0863005      -1.044285e+00 7.588149e+02 -4.627681e+01 -1.044396e+00 7.588173e+02 -4.627764e+01 1.109406e-04 -2.380701e-03 8.290496e-04
0.0863818      -9.270409e-02 1.105519e+02 -6.053983e+00 -9.281468e-02 1.105539e+02 -6.054761e+00 1.105835e-04 -2.039414e-03 7.781683e-04
0.0864791      1.700562e+00 -9.975061e+02 6.952715e+01 1.700446e+00 -9.975004e+02 6.952572e+01 1.164290e-04 -5.672504e-03 1.428928e-03
0.0865297      1.114067e+00 -6.488541e+02 5.008097e+01 1.113948e+00 -6.488472e+02 5.007930e+01 1.184963e-04 -6.892546e-03 1.674656e-03
0.0865723      -3.395794e+00 2.159421e+03 -1.559493e+02 -3.395907e+00 2.159424e+03 -1.559504e+02 1.134311e-04 -3.440649e-03 1.035520e-03
0.0866233      2.648871e-01 -1.244734e+02 1.127512e+01 2.647733e-01 -1.244698e+02 1.127403e+01 1.138251e-04 -3.669739e-03 1.088980e-03
0.0866831      4.937463e+00 -2.697659e+03 2.169133e+02 4.937339e+00 -2.697649e+03 2.169110e+02 1.242277e-04 -9.709858e-03 2.342309e-03
0.0867127      2.158031e+00 -1.096696e+03 9.900240e+01 2.157904e+00 -1.096685e+03 9.899977e+01 1.265008e-04 -1.090341e-02 2.628348e-03
0.0867397      -9.558265e+00 5.490484e+03 -4.575917e+02 -9.558383e+00 5.490489e+03 -4.575931e+02 1.174099e-04 -5.333862e-03 1.440144e-03
0.0867721      1.896947e+00 -1.028884e+03 9.304720e+01 1.896828e+00 -1.028877e+03 9.304547e+01 1.194784e-04 -6.568272e-03 1.729783e-03
0.0868093      1.327015e+01 -6.726295e+03 6.172153e+02 1.327001e+01 -6.726279e+03 6.172113e+02 1.367290e-04 -1.593549e-02 3.950053e-03
0.0868273      3.066799e+00 -1.306231e+03 1.426313e+02 3.066660e+00 -1.306215e+03 1.426271e+02 1.386310e-04 -1.678580e-02 4.205780e-03
0.086845       -2.400416e+01 1.270667e+04 -1.203968e+03 -2.400428e+01 1.270668e+04 -1.203970e+03 1.237046e-04 -8.372430e-03 2.166443e-03
0.0868661      7.675014e+00 -3.874750e+03 3.894108e+02 7.674885e+00 -3.874738e+03 3.894079e+02 1.292887e-04 -1.141864e-02 2.959858e-03
0.08689        3.303302e+01 -1.536057e+04 1.590822e+03 3.303286e+01 -1.536054e+04 1.590816e+03 1.566663e-04 -2.513742e-02 6.630723e-03
0.0869014      9.519362e-01 3.387712e+02 9.105304e+00 9.517792e-01 3.387961e+02 9.098649e+00 1.569187e-04 -2.494690e-02 6.654513e-03
0.0869134      -5.425622e+01 2.657611e+04 -2.830275e+03 -5.425636e+01 2.657612e+04 -2.830278e+03 1.340789e-04 -1.302924e-02 3.408423e-03
0.0869277      2.521265e+01 -1.176509e+04 1.317527e+03 2.521250e+01 -1.176507e+04 1.317522e+03 1.465500e-04 -1.930573e-02 5.227715e-03
0.0869435      7.354010e+01 -3.178461e+04 3.692230e+03 7.353991e+01 -3.178458e+04 3.692219e+03 1.867099e-04 -3.811237e-02 1.087229e-02
0.0869511      -1.750857e+01 9.577505e+03 -1.038209e+03 -1.750875e+01 9.577540e+03 -1.038219e+03 1.818159e-04 -3.531654e-02 1.013172e-02
0.0869596      -1.080449e+02 4.861442e+04 -5.764708e+03 -1.080450e+02 4.861444e+04 -5.764713e+03 1.496024e-04 -1.984836e-02 5.442481e-03
0.0869698      7.567015e+01 -3.225506e+04 4.010130e+03 7.566997e+01 -3.225503e+04 4.010121e+03 1.762430e-04 -3.207693e-02 9.372606e-03
0.0869792      1.609205e+02 -6.395258e+04 8.228536e+03 1.609203e+02 -6.395253e+04 8.228519e+03 2.287400e-04 -5.470313e-02 1.689924e-02
