x,y,z,alpha.water
0.15,0,-0.125,1.00001
0.15,3.30872e-24,-0.125,1.00001
0.15,-3.48878e-19,-0.120834,1.00001
0.15,-6.9776e-19,-0.116667,1.00001
0.15,-6.97767e-19,-0.1125,1.00001
0.15,-6.97774e-19,-0.108333,1.00001
0.15,-6.97772e-19,-0.104166,1.00001
0.15,-6.9777e-19,-0.1,1.00001
0.15,-6.97767e-19,-0.0958334,1.00001
0.15,-6.97765e-19,-0.0916667,1.00001
0.15,-6.97763e-19,-0.0875,1.00001
0.15,-6.97762e-19,-0.0833333,1.00001
0.15,-6.97761e-19,-0.08125,1.00001
0.15,-6.9776e-19,-0.0791667,1.00001
0.15,-6.9776e-19,-0.0781251,1.00001
0.15,-6.9776e-19,-0.0770836,1.00001
0.15,-6.97759e-19,-0.0760418,1.00001
0.15,-6.97758e-19,-0.075,1.00001
0.15,-6.97757e-19,-0.0739584,1.00001
0.15,-6.97756e-19,-0.0729168,1.00001
0.15,-6.97757e-19,-0.071875,1.00001
0.15,-6.97758e-19,-0.0708333,1.00001
0.15,-6.97756e-19,-0.0697917,1.00001
0.15,-6.97754e-19,-0.0687501,1.00001
0.15,-6.97755e-19,-0.0677084,1.00001
0.15,-6.97756e-19,-0.0666667,1.00001
0.15,-6.97756e-19,-0.0656251,1.00001
0.15,-6.97756e-19,-0.0645834,1.00001
0.15,-6.97756e-19,-0.0635417,1.00001
0.15,-6.97757e-19,-0.0625,1.00001
0.15,-6.97757e-19,-0.0614584,1.00001
0.15,-6.97757e-19,-0.0604167,1.00001
0.15,-6.97756e-19,-0.059375,1.00001
0.15,-6.97756e-19,-0.0583333,1.00001
0.15,-6.97756e-19,-0.0572917,1.00001
0.15,-6.97756e-19,-0.0562501,1.00001
0.15,-6.97755e-19,-0.0552084,1.00001
0.15,-6.97754e-19,-0.0541667,1.00001
0.15,-6.97754e-19,-0.0531251,1.00001
0.15,-6.97755e-19,-0.0520834,1.00001
0.15,-6.97754e-19,-0.0510417,1.00001
0.15,-6.97754e-19,-0.05,1.00001
0.15,-6.97754e-19,-0.0489584,1.00001
0.15,-6.97754e-19,-0.0479167,1.00001
0.15,-6.97754e-19,-0.046875,1.00001
0.15,-6.97754e-19,-0.0458333,1.00001
0.15,-6.97754e-19,-0.0447917,1.00001
0.15,-6.97754e-19,-0.04375,1.00001
0.15,-6.97754e-19,-0.0427084,1.00001
0.15,-6.97754e-19,-0.0416667,1.00001
0.15,-6.97753e-19,-0.040625,1.00001
0.15,-6.97753e-19,-0.0395833,1.00001
0.15,-6.97753e-19,-0.0385417,1.00001
0.15,-6.97753e-19,-0.0375,1.00001
0.15,-6.97753e-19,-0.0364583,1.00001
0.15,-6.97753e-19,-0.0354167,1.00001
0.15,-6.97753e-19,-0.034375,1.00001
0.15,-6.97753e-19,-0.0333333,1.00001
0.15,-6.97753e-19,-0.0322917,1.00001
0.15,0,-0.03125,1.00001
0.15,-6.97753e-19,-0.03125,1.00001
0.15,-2.79942e-19,-0.0302084,1.00001
0.15,-5.59884e-19,-0.0291667,1.00001
0.15,-5.59884e-19,-0.0281251,1.00001
0.15,-5.59884e-19,-0.0270834,1.00001
0.15,-5.59884e-19,-0.0260417,1.00001
0.15,-5.59884e-19,-0.025,1.00001
0.15,-5.59884e-19,-0.0239583,1.00001
0.15,-5.59884e-19,-0.0229167,1.00001
0.15,-5.59884e-19,-0.021875,1.00001
0.15,-5.59884e-19,-0.0208333,1.00001
0.15,-5.59884e-19,-0.0197917,1.00001
0.15,-5.59884e-19,-0.01875,1.00001
0.15,-5.59884e-19,-0.0177084,1.00001
0.15,-5.59884e-19,-0.0166667,1.00001
0.15,-5.59884e-19,-0.0156251,1.00001
0.15,-5.59884e-19,-0.0145834,1.00001
0.15,-5.59884e-19,-0.0135417,1.00001
0.15,-5.59884e-19,-0.0125,1.00001
0.15,-5.59884e-19,-0.0114584,1.00001
0.15,-5.59884e-19,-0.0104167,1.00001
0.15,-5.59884e-19,-0.00937502,1.00001
0.15,-5.59884e-19,-0.00833333,1.00001
0.15,-5.59884e-19,-0.00729165,1.00001
0.15,-5.59884e-19,-0.00624997,1.00001
0.15,-5.59884e-19,-0.00520832,1.00001
0.15,-5.59884e-19,-0.00416667,1.00001
0.15,-5.59884e-19,-0.003125,1.00001
0.15,-5.59884e-19,-0.00208333,1.00001
0.15,-5.59884e-19,-0.00104166,1.00001
0.15,-5.59884e-19,3.1943e-11,1
0.15,-5.59884e-19,0.00104167,1
0.15,-5.59884e-19,0.00208333,1
0.15,5.16988e-26,0.00208333,1
0.15,-6.01164e-20,0.003125,1
0.15,-1.20233e-19,0.00416667,1
0.15,-1.20233e-19,0.00520832,1
0.15,-1.20233e-19,0.00624997,1
0.15,-1.20233e-19,0.00729165,1
0.15,-1.20233e-19,0.00833333,0.999998
0.15,-1.20233e-19,0.00937501,0.999998
0.15,-1.20233e-19,0.0104167,0.99999
0.15,-1.20233e-19,0.0114583,0.99999
0.15,-1.20233e-19,0.0125,0.99996
0.15,-1.20233e-19,0.0135417,0.99996
0.15,-1.20233e-19,0.0145834,0.999842
0.15,-1.20233e-19,0.015625,0.999842
0.15,-1.20233e-19,0.0166667,0.9994
0.15,-1.20233e-19,0.0177083,0.9994
0.15,-1.20233e-19,0.01875,0.997892
0.15,-1.20233e-19,0.0197916,0.997892
0.15,-1.20233e-19,0.0208333,0.992519
0.15,-1.20233e-19,0.021875,0.992519
0.15,-1.20233e-19,0.0229167,0.925708
0.15,-1.20233e-19,0.0239583,0.925708
0.15,-1.20233e-19,0.025,0.502395
0.15,-1.20233e-19,0.0260417,0.502395
0.15,-1.20233e-19,0.0270834,0.085169
0.15,-1.20233e-19,0.028125,0.085169
0.15,-1.20233e-19,0.0291667,0.00985838
0.15,-1.20233e-19,0.0302083,0.00985838
0.15,-1.20233e-19,0.03125,0.000829078
0.15,-1.20233e-19,0.0322916,0.000829078
0.15,-1.20233e-19,0.0333333,3.56599e-05
0.15,-1.20233e-19,0.034375,3.56599e-05
0.15,-1.20233e-19,0.0354167,5.06807e-07
0.15,-1.20233e-19,0.0364583,5.06807e-07
0.15,-1.20233e-19,0.0375,5.06807e-07
0.15,1.29247e-26,0.0375,9.03197e-08
0.15,4.22791e-19,0.0385417,9.03197e-08
0.15,8.45582e-19,0.0395833,2.24304e-08
0.15,8.45582e-19,0.040625,2.24304e-08
0.15,8.45582e-19,0.0416667,8.3096e-09
0.15,8.45582e-19,0.0427084,8.3096e-09
0.15,8.45582e-19,0.0437501,5.97196e-09
0.15,8.45582e-19,0.0447917,5.97196e-09
0.15,8.45582e-19,0.0458334,5.06881e-09
0.15,8.45582e-19,0.0468751,5.06881e-09
0.15,8.45582e-19,0.0479168,2.56051e-09
0.15,8.45582e-19,0.0489584,2.56051e-09
0.15,8.45582e-19,0.0500001,1.65561e-09
0.15,8.45582e-19,0.0510418,1.65561e-09
0.15,8.45582e-19,0.0520835,1.34897e-09
0.15,8.45582e-19,0.0531251,1.34897e-09
0.15,8.45582e-19,0.0541668,1.31982e-09
0.15,8.45582e-19,0.0552084,1.31982e-09
0.15,8.45582e-19,0.0562501,1.40586e-09
0.15,8.45582e-19,0.0572918,1.40586e-09
0.15,8.45582e-19,0.0583335,1.42077e-09
0.15,8.45582e-19,0.0593752,1.42077e-09
0.15,8.45582e-19,0.0604169,1.35596e-09
0.15,8.45582e-19,0.0614585,1.35596e-09
0.15,8.45582e-19,0.0625002,1.30787e-09
0.15,8.45582e-19,0.0635419,1.30787e-09
0.15,8.45582e-19,0.0645837,1.22126e-09
0.15,8.45582e-19,0.0656254,1.22126e-09
0.15,8.45582e-19,0.0666671,1.06827e-09
0.15,8.45582e-19,0.0677088,1.06827e-09
0.15,8.45582e-19,0.0687506,8.74206e-10
0.15,8.45582e-19,0.0697922,8.74206e-10
0.15,8.45582e-19,0.0708339,6.91889e-10
0.15,8.45582e-19,0.0718757,6.91889e-10
0.15,8.45582e-19,0.0729175,5.66534e-10
0.15,8.45582e-19,0.0739592,5.66534e-10
0.15,8.45582e-19,0.0750009,5.04385e-10
0.15,8.45582e-19,0.0760428,5.04385e-10
0.15,8.45582e-19,0.0770847,4.79303e-10
0.15,8.45583e-19,0.0781264,4.79303e-10
0.15,8.45583e-19,0.079168,4.62456e-10
0.15,8.45583e-19,0.0812519,4.62456e-10
0.15,8.45582e-19,0.0833357,6.84016e-10
0.15,8.45584e-19,0.0875043,6.84016e-10
0.15,8.45586e-19,0.0916728,1.9443e-09
0.15,8.45584e-19,0.0958426,1.9443e-09
0.15,8.45582e-19,0.100012,7.00691e-09
0.15,8.45582e-19,0.101553,7.00691e-09
0.15,8.45582e-19,0.103094,6.16914e-09
0.15,8.45583e-19,0.109898,6.16914e-09
0.15,8.45584e-19,0.116701,6.16914e-09
0.15,8.37312e-08,0.116701,6.018e-09
0.15,8.37312e-08,0.12505,6.018e-09
0.15,8.37312e-08,0.133398,2.77309e-09
