x,y,z,alpha.water
0,0.15,-0.125,1
-1.0842e-19,0.15,-0.120833,1
5.42101e-20,0.15,-0.116667,1
-2.1684e-19,0.15,-0.116667,1
2.43945e-19,0.15,-0.1125,1
4.33681e-19,0.15,-0.108333,1
4.33681e-19,0.15,-0.104166,1
4.33681e-19,0.15,-0.1,1
4.87891e-19,0.15,-0.0958333,1
5.42101e-19,0.15,-0.0916667,1
1.49078e-19,0.15,-0.0875,1
-2.43945e-19,0.15,-0.0833333,1
-2.30393e-19,0.15,-0.08125,1
-2.1684e-19,0.15,-0.0791667,1
-1.6263e-19,0.15,-0.0781251,1
-1.0842e-19,0.15,-0.0770835,1
1.0842e-19,0.15,-0.0760417,1
3.25261e-19,0.15,-0.075,1
3.25261e-19,0.15,-0.0739584,1
3.25261e-19,0.15,-0.0729168,1
3.79471e-19,0.15,-0.071875,1
4.33681e-19,0.15,-0.0708333,1
5.42101e-19,0.15,-0.0697917,1
6.50521e-19,0.15,-0.06875,1
7.31836e-19,0.15,-0.0677084,1
8.13152e-19,0.15,-0.0666667,1
6.23416e-19,0.15,-0.065625,1
4.33681e-19,0.15,-0.0645834,1
4.33681e-19,0.15,-0.0635417,1
4.33681e-19,0.15,-0.0625,1
5.42101e-19,0.15,-0.0614583,1
6.50521e-19,0.15,-0.0604167,1
6.77626e-19,0.15,-0.059375,1
7.04731e-19,0.15,-0.0583333,1
8.94467e-19,0.15,-0.0572916,1
1.0842e-18,0.15,-0.05625,1
1.13841e-18,0.15,-0.0552083,1
1.19262e-18,0.15,-0.0541667,1
1.19262e-18,0.15,-0.053125,1
1.19262e-18,0.15,-0.0520833,1
1.24683e-18,0.15,-0.0510417,1
1.30104e-18,0.15,-0.05,1
1.35525e-18,0.15,-0.0489583,1
1.40946e-18,0.15,-0.0479167,1
1.24683e-18,0.15,-0.046875,1
1.0842e-18,0.15,-0.0458333,1
1.02999e-18,0.15,-0.0447916,1
9.75782e-19,0.15,-0.04375,1
9.89334e-19,0.15,-0.0427083,1
1.00289e-18,0.15,-0.0416667,1
1.15196e-18,0.15,-0.040625,1
1.30104e-18,0.15,-0.0395833,1
1.35525e-18,0.15,-0.0385417,1
1.40946e-18,0.15,-0.0375,1
1.35525e-18,0.15,-0.0364583,1
1.30104e-18,0.15,-0.0354167,1
1.3146e-18,0.15,-0.034375,1
1.32815e-18,0.15,-0.0333333,1
1.3146e-18,0.15,-0.0322916,1
1.30104e-18,0.15,-0.03125,1
1.30104e-18,0.15,-0.0302083,1
1.30104e-18,0.15,-0.0291667,1
1.24683e-18,0.15,-0.028125,1
1.19262e-18,0.15,-0.0270833,1
1.11131e-18,0.15,-0.0260417,1
1.02999e-18,0.15,-0.025,1
1.11131e-18,0.15,-0.0239583,1
1.19262e-18,0.15,-0.0229167,1
1.0842e-18,0.15,-0.021875,1
9.75782e-19,0.15,-0.0208333,1
9.75782e-19,0.15,-0.0197916,1
9.75782e-19,0.15,-0.01875,1
9.75782e-19,0.15,-0.0177083,1
9.75782e-19,0.15,-0.0166667,1
9.21572e-19,0.15,-0.015625,1
8.67362e-19,0.15,-0.0145833,1
9.21572e-19,0.15,-0.0135417,1
9.75782e-19,0.15,-0.0125,1
9.62229e-19,0.15,-0.0114583,1
9.48677e-19,0.15,-0.0104167,1
-2.71051e-20,0.15,-0.0104167,0.999993
-1.49078e-19,0.15,-0.009375,0.999993
-2.71051e-19,0.15,-0.00833333,0.998967
-3.52366e-19,0.15,-0.00729167,0.998967
-4.33681e-19,0.15,-0.00625,0.946988
-4.87891e-19,0.15,-0.00520833,0.946988
-5.42101e-19,0.15,-0.00416667,0.529822
-5.42101e-19,0.15,-0.00312498,0.529822
-5.42101e-19,0.15,-0.00208329,0.0602909
-5.01444e-19,0.15,-0.00104165,0.0602909
-4.60786e-19,0.15,1.40133e-11,0.000878855
-5.01444e-19,0.15,0.00104165,0.000878855
-5.42101e-19,0.15,0.00208329,8.3875e-06
-5.42101e-19,0.15,0.00312498,8.3875e-06
-5.42101e-19,0.15,0.00416667,4.37514e-07
-5.42101e-19,0.15,0.00520833,4.37514e-07
-5.42101e-19,0.15,0.00625,3.49809e-08
-5.01444e-19,0.15,0.00729167,3.49809e-08
-4.60786e-19,0.15,0.00833333,3.7719e-09
-4.47233e-19,0.15,0.009375,3.7719e-09
-4.33681e-19,0.15,0.0104167,4.86246e-10
-3.25261e-19,0.15,0.0114583,4.86246e-10
-2.1684e-19,0.15,0.0125,6.35922e-11
-1.0842e-19,0.15,0.0135417,6.35922e-11
0,0.15,0.0145833,4.31966e-12
-4.06576e-20,0.15,0.015625,4.31966e-12
-8.13152e-20,0.15,0.0166667,1.9035e-12
-2.57498e-19,0.15,0.0177084,1.9035e-12
-4.33681e-19,0.15,0.01875,2.06673e-12
-4.33681e-19,0.15,0.0197917,2.06673e-12
-4.33681e-19,0.15,0.0208333,2.37984e-12
-4.33681e-19,0.15,0.021875,2.37984e-12
-4.33681e-19,0.15,0.0229167,3.22268e-12
-3.79471e-19,0.15,0.0239583,3.22268e-12
-3.25261e-19,0.15,0.025,4.4561e-12
-2.71051e-19,0.15,0.0260417,4.4561e-12
-2.1684e-19,0.15,0.0270834,6.89663e-12
-1.6263e-19,0.15,0.028125,6.89663e-12
-1.0842e-19,0.15,0.0291667,1.50337e-11
-1.6263e-19,0.15,0.0302083,1.50337e-11
-2.1684e-19,0.15,0.03125,4.29949e-11
-1.76183e-19,0.15,0.0322916,4.29949e-11
-1.35525e-19,0.15,0.0333333,1.22245e-10
-2.30393e-19,0.15,0.034375,1.22245e-10
-3.25261e-19,0.15,0.0354167,2.64609e-10
-3.25261e-19,0.15,0.0364583,2.64609e-10
-3.25261e-19,0.15,0.0375,4.28934e-10
-3.79471e-19,0.15,0.0385417,4.28934e-10
-4.33681e-19,0.15,0.0395833,5.45827e-10
-4.74338e-19,0.15,0.040625,5.45827e-10
-5.14996e-19,0.15,0.0416667,7.40075e-10
-5.82759e-19,0.15,0.0427084,7.40075e-10
-6.50521e-19,0.15,0.04375,1.12611e-09
-6.50521e-19,0.15,0.0447917,1.12611e-09
-6.50521e-19,0.15,0.0458333,1.59439e-09
-7.58942e-19,0.15,0.046875,1.59439e-09
-8.67362e-19,0.15,0.0479167,1.90733e-09
-9.48677e-19,0.15,0.0489583,1.90733e-09
-1.02999e-18,0.15,0.05,2.02276e-09
-1.00289e-18,0.15,0.0510417,2.02276e-09
-9.75782e-19,0.15,0.0520833,2.10987e-09
-8.67362e-19,0.15,0.053125,2.10987e-09
-7.58942e-19,0.15,0.0541667,2.24468e-09
-8.67362e-19,0.15,0.0552084,2.24468e-09
-9.75782e-19,0.15,0.0562501,2.31063e-09
-1.12486e-18,0.15,0.0572917,2.31063e-09
-1.27394e-18,0.15,0.0583334,2.28232e-09
-1.23328e-18,0.15,0.0593751,2.28232e-09
-1.19262e-18,0.15,0.0604167,2.26655e-09
-1.30104e-18,0.15,0.0614584,2.26655e-09
-1.40946e-18,0.15,0.0625001,2.27494e-09
-1.57209e-18,0.15,0.0635418,2.27494e-09
-1.73472e-18,0.15,0.0645835,2.30128e-09
-1.91091e-18,0.15,0.0656252,2.30128e-09
-2.08709e-18,0.15,0.0666668,2.30187e-09
-1.8567e-18,0.15,0.0677085,2.30187e-09
-1.6263e-18,0.15,0.0687502,2.27739e-09
-1.42302e-18,0.15,0.0697919,2.27739e-09
-1.21973e-18,0.15,0.0708336,2.27739e-09
-1.6263e-19,0.15,0.0708336,2.26469e-09
8.13152e-20,0.15,0.0718754,2.26469e-09
3.25261e-19,0.15,0.0729171,2.27405e-09
3.25261e-19,0.15,0.0739588,2.27405e-09
3.25261e-19,0.15,0.0750004,2.3185e-09
3.25261e-19,0.15,0.0760422,2.3185e-09
3.25261e-19,0.15,0.077084,2.35508e-09
4.87891e-19,0.15,0.0781256,2.35508e-09
6.50521e-19,0.15,0.0791673,2.42646e-09
6.50521e-19,0.15,0.0812508,2.42646e-09
6.50521e-19,0.15,0.0833343,2.66923e-09
7.58942e-19,0.15,0.0875017,2.66923e-09
8.67362e-19,0.15,0.0916692,3.0795e-09
6.77626e-19,0.15,0.0958366,3.0795e-09
4.87891e-19,0.15,0.100004,3.91055e-09
-1.89735e-19,0.15,0.108342,3.91055e-09
-8.67362e-19,0.15,0.11668,5.07293e-09
-4.87891e-19,0.15,0.125019,5.07293e-09
-1.0842e-19,0.15,0.133359,6.07887e-09
