x,y,z,alpha.water
0.125,0,-0.125,1.00001
0.125,-3.21868e-19,-0.120834,1.00001
0.125,-6.43735e-19,-0.116667,1.00001
0.125,-1.65436e-24,-0.116667,1.00001
0.125,7.03757e-20,-0.1125,1.00001
0.125,1.40753e-19,-0.108333,1.00001
0.125,1.40753e-19,-0.104166,1.00001
0.125,1.40753e-19,-0.1,1.00001
0.125,1.40748e-19,-0.0958333,1.00001
0.125,1.40743e-19,-0.0916667,1.00001
0.125,1.40741e-19,-0.0875,1.00001
0.125,1.4074e-19,-0.0833333,1.00001
0.125,1.40741e-19,-0.08125,1.00001
0.125,1.40743e-19,-0.0791667,1.00001
0.125,1.40742e-19,-0.0781251,1.00001
0.125,1.40741e-19,-0.0770835,1.00001
0.125,1.40741e-19,-0.0760417,1.00001
0.125,1.40741e-19,-0.075,1.00001
0.125,1.40744e-19,-0.0739583,1.00001
0.125,1.40746e-19,-0.0729167,1.00001
0.125,1.40745e-19,-0.071875,1.00001
0.125,1.40744e-19,-0.0708333,1.00001
0.125,1.40744e-19,-0.0697917,1.00001
0.125,1.40745e-19,-0.0687501,1.00001
0.125,1.40745e-19,-0.0677084,1.00001
0.125,1.40745e-19,-0.0666667,1.00001
0.125,1.40745e-19,-0.0656251,1.00001
0.125,1.40746e-19,-0.0645834,1.00001
0.125,1.40746e-19,-0.0635417,1.00001
0.125,1.40746e-19,-0.0625,1.00001
0.125,1.40746e-19,-0.0614584,1.00001
0.125,1.40746e-19,-0.0604167,1.00001
0.125,1.40746e-19,-0.059375,1.00001
0.125,1.40747e-19,-0.0583333,1.00001
0.125,1.40747e-19,-0.0572917,1.00001
0.125,1.40747e-19,-0.05625,1.00001
0.125,1.40747e-19,-0.0552084,1.00001
0.125,1.40747e-19,-0.0541667,1.00001
0.125,1.40747e-19,-0.0531251,1.00001
0.125,1.40747e-19,-0.0520834,1.00001
0.125,1.40747e-19,-0.0510417,1.00001
0.125,1.40747e-19,-0.05,1.00001
0.125,1.40747e-19,-0.0489583,1.00001
0.125,1.40747e-19,-0.0479166,1.00001
0.125,1.40747e-19,-0.046875,1.00001
0.125,1.40747e-19,-0.0458333,1.00001
0.125,1.40747e-19,-0.0447917,1.00001
0.125,1.40747e-19,-0.04375,1.00001
0.125,1.40747e-19,-0.0427084,1.00001
0.125,1.40747e-19,-0.0416667,1.00001
0.125,1.40747e-19,-0.0406251,1.00001
0.125,1.40747e-19,-0.0395834,1.00001
0.125,1.40747e-19,-0.0385417,1.00001
0.125,1.40747e-19,-0.0375,1.00001
0.125,1.40747e-19,-0.0364584,1.00001
0.125,1.40747e-19,-0.0354167,1.00001
0.125,1.40747e-19,-0.034375,1.00001
0.125,1.40747e-19,-0.0333333,1.00001
0.125,-5.16988e-26,-0.0333333,1.00001
0.125,-1.34927e-19,-0.0322917,1.00001
0.125,-2.69854e-19,-0.03125,1.00001
0.125,-2.69854e-19,-0.0302084,1.00001
0.125,-2.69854e-19,-0.0291667,1.00001
0.125,-2.69854e-19,-0.0281251,1.00001
0.125,-2.69854e-19,-0.0270834,1.00001
0.125,-2.69854e-19,-0.0260417,1.00001
0.125,-2.69854e-19,-0.025,1.00001
0.125,-2.69854e-19,-0.0239584,1.00001
0.125,-2.69854e-19,-0.0229167,1.00001
0.125,-2.69854e-19,-0.021875,1.00001
0.125,-2.69854e-19,-0.0208333,1.00001
0.125,-2.69854e-19,-0.0197916,1.00001
0.125,-2.69854e-19,-0.01875,1.00001
0.125,-2.69854e-19,-0.0177083,1.00001
0.125,-2.69854e-19,-0.0166667,1.00001
0.125,-2.69854e-19,-0.015625,1.00001
0.125,-2.69854e-19,-0.0145834,1
0.125,-2.69854e-19,-0.0135417,1
0.125,-2.69854e-19,-0.0125,1
0.125,-2.69854e-19,-0.0114583,1
0.125,-2.69854e-19,-0.0104167,1
0.125,-2.69854e-19,-0.009375,1
0.125,-2.69854e-19,-0.00833333,1
0.125,-2.69854e-19,-0.00729166,1
0.125,-2.69854e-19,-0.00625,1
0.125,-2.69854e-19,-0.00520833,1
0.125,-2.69854e-19,-0.00416667,1
0.125,-2.69854e-19,-0.003125,1
0.125,-2.69854e-19,-0.00208333,1
0.125,-2.69854e-19,-0.00104166,1
0.125,-2.69854e-19,6.87873e-11,1
0.125,-2.69854e-19,0.00104167,1
0.125,-2.69854e-19,0.00208334,1
0.125,-2.69854e-19,0.003125,1
0.125,-2.69854e-19,0.00416667,1
0.125,0,0.00416667,0.999999
0.125,-3.91036e-19,0.00520834,0.999999
0.125,-7.82071e-19,0.00625,0.999995
0.125,-7.82071e-19,0.00729167,0.999995
0.125,-7.82071e-19,0.00833333,0.999975
0.125,-7.82071e-19,0.009375,0.999975
0.125,-7.82071e-19,0.0104167,0.999882
0.125,-7.82071e-19,0.0114583,0.999882
0.125,-7.82071e-19,0.0125,0.999467
0.125,-7.82071e-19,0.0135417,0.999467
0.125,-7.82071e-19,0.0145833,0.997841
0.125,-7.82071e-19,0.015625,0.997841
0.125,-7.82071e-19,0.0166667,0.982945
0.125,-7.82071e-19,0.0177083,0.982945
0.125,-7.82071e-19,0.01875,0.771425
0.125,-7.82071e-19,0.0197916,0.771425
0.125,-7.82071e-19,0.0208333,0.208538
0.125,-7.82071e-19,0.021875,0.208538
0.125,-7.82071e-19,0.0229166,0.0165078
0.125,-7.82071e-19,0.0239583,0.0165078
0.125,-7.82071e-19,0.025,0.000564908
0.125,-7.82071e-19,0.0260417,0.000564908
0.125,-7.82071e-19,0.0270834,1.28739e-05
0.125,-7.82071e-19,0.028125,1.28739e-05
0.125,-7.82071e-19,0.0291667,1.91886e-06
0.125,-7.82071e-19,0.0302083,1.91886e-06
0.125,-7.82071e-19,0.03125,2.15179e-06
0.125,-7.82071e-19,0.0322916,2.15179e-06
0.125,-7.82071e-19,0.0333333,3.14924e-07
0.125,-7.82071e-19,0.034375,3.14924e-07
0.125,-7.82071e-19,0.0354167,7.55296e-08
0.125,-7.82071e-19,0.0364583,7.55296e-08
0.125,-7.82071e-19,0.0375,7.55296e-08
0.125,-3.23117e-27,0.0375,2.04754e-08
0.125,1.06289e-19,0.0385417,2.04754e-08
0.125,2.12579e-19,0.0395834,3.71289e-09
0.125,2.12579e-19,0.040625,3.71289e-09
0.125,2.12579e-19,0.0416667,1.40999e-09
0.125,2.12579e-19,0.0427084,1.40999e-09
0.125,2.12579e-19,0.0437501,9.21954e-10
0.125,2.12579e-19,0.0447918,9.21954e-10
0.125,2.12579e-19,0.0458334,7.58184e-10
0.125,2.12579e-19,0.0468751,7.58184e-10
0.125,2.12579e-19,0.0479168,7.42279e-10
0.125,2.12579e-19,0.0483459,7.42279e-10
0.125,2.12579e-19,0.048775,7.19563e-10
0.125,2.12579e-19,0.0493876,7.19563e-10
0.125,2.12579e-19,0.0500001,7.09604e-10
0.125,2.12579e-19,0.0510418,7.09604e-10
0.125,2.12579e-19,0.0520835,6.44593e-10
0.125,2.12579e-19,0.0531252,6.44593e-10
0.125,2.12579e-19,0.0541669,6.07612e-10
0.125,2.12579e-19,0.0552086,6.07612e-10
0.125,2.12579e-19,0.0562503,5.95625e-10
0.125,2.12579e-19,0.0570685,5.95625e-10
0.125,2.12579e-19,0.0578868,6.3519e-10
0.125,2.12579e-19,0.0581102,6.3519e-10
0.125,2.12579e-19,0.0583337,7.43214e-10
0.125,2.12579e-19,0.0584495,7.43214e-10
0.125,2.12579e-19,0.0585654,5.94726e-10
0.125,2.12579e-19,0.0594913,5.94726e-10
0.125,2.12579e-19,0.0604172,6.81765e-10
0.125,2.12579e-19,0.0614588,6.81765e-10
0.125,2.12579e-19,0.0625005,9.98309e-10
0.125,2.12579e-19,0.0635423,9.98309e-10
0.125,2.12579e-19,0.064584,1.4238e-09
0.125,2.12579e-19,0.0656257,1.4238e-09
0.125,2.12579e-19,0.0666675,1.63447e-09
0.125,2.12579e-19,0.0677093,1.63447e-09
0.125,2.12579e-19,0.0687511,1.6188e-09
0.125,2.12579e-19,0.0697928,1.6188e-09
0.125,2.12579e-19,0.0708346,1.20227e-09
0.125,2.12579e-19,0.0718765,1.20227e-09
0.125,2.12579e-19,0.0729184,7.27724e-10
0.125,2.12579e-19,0.0739601,7.27724e-10
0.125,2.12579e-19,0.0750018,4.87764e-10
0.125,2.12579e-19,0.0760439,4.87764e-10
0.125,2.12579e-19,0.0770859,4.10584e-10
0.125,2.12579e-19,0.0781278,4.10584e-10
0.125,2.12579e-19,0.0791696,3.81413e-10
0.125,2.12579e-19,0.0812538,3.81413e-10
0.125,2.12579e-19,0.083338,3.54891e-10
0.125,2.12579e-19,0.0875084,3.54891e-10
0.125,2.12579e-19,0.0916787,3.37386e-10
0.125,2.1258e-19,0.0958495,3.37386e-10
0.125,2.1258e-19,0.10002,4.26667e-10
0.125,2.12578e-19,0.108378,4.26667e-10
0.125,2.12575e-19,0.116735,4.26667e-10
0.125,3.30872e-24,0.116735,6.85872e-10
0.125,6.91245e-19,0.125096,6.85872e-10
0.125,1.38249e-18,0.133457,1.57203e-09
