x,y,z,alpha.water
0,0.1,-0.125,1
4.64174e-19,0.1,-0.120834,1
9.28348e-19,0.1,-0.116667,1
7.45389e-19,0.1,-0.116667,1
1.0283e-18,0.1,-0.1125,1
1.31121e-18,0.1,-0.108333,1
1.41455e-18,0.1,-0.104166,1
1.51788e-18,0.1,-0.1,1
1.51788e-18,0.1,-0.0958333,1
1.51788e-18,0.1,-0.0916667,1
1.89735e-18,0.1,-0.0875,1
2.27682e-18,0.1,-0.0833333,1
2.38524e-18,0.1,-0.08125,1
2.49366e-18,0.1,-0.0791667,1
2.71051e-18,0.1,-0.0781251,1
2.92735e-18,0.1,-0.0770834,1
2.81893e-18,0.1,-0.0760417,1
2.71051e-18,0.1,-0.075,1
2.49366e-18,0.1,-0.0739583,1
2.27682e-18,0.1,-0.0729167,1
2.2692e-18,0.1,-0.071875,1
2.26158e-18,0.1,-0.0708333,1
2.05236e-18,0.1,-0.0697917,1
1.84314e-18,0.1,-0.0687501,1
1.84314e-18,0.1,-0.0677084,1
1.84314e-18,0.1,-0.0666667,1
1.89735e-18,0.1,-0.0656251,1
1.95156e-18,0.1,-0.0645834,1
1.73472e-18,0.1,-0.0635417,1
1.51788e-18,0.1,-0.0625,1
1.57209e-18,0.1,-0.0614584,1
1.6263e-18,0.1,-0.0604167,1
1.68051e-18,0.1,-0.059375,1
1.73472e-18,0.1,-0.0583333,1
1.78893e-18,0.1,-0.0572917,1
1.84314e-18,0.1,-0.05625,1
1.8171e-18,0.1,-0.0552084,1
1.79105e-18,0.1,-0.0541667,1
1.70868e-18,0.1,-0.053125,1
1.6263e-18,0.1,-0.0520833,1
1.68051e-18,0.1,-0.0510417,1
1.73472e-18,0.1,-0.05,1
2.05998e-18,0.1,-0.0489583,1
2.38524e-18,0.1,-0.0479166,1
2.22261e-18,0.1,-0.046875,1
2.05998e-18,0.1,-0.0458333,1
2.1684e-18,0.1,-0.0447917,1
2.27682e-18,0.1,-0.04375,1
2.20192e-18,0.1,-0.0427084,1
3.7693e-20,0.1,-0.0416667,1
2.12701e-18,0.1,-0.0416667,1
1.27267e-19,0.1,-0.040625,1
2.1684e-19,0.1,-0.0395834,1
5.60101e-20,0.1,-0.0385417,1
-1.0482e-19,0.1,-0.0375,1
-5.24102e-20,0.1,-0.0364583,1
0,0.1,-0.0354167,1
-5.42101e-20,0.1,-0.034375,1
-1.0842e-19,0.1,-0.0333333,1
-5.42101e-20,0.1,-0.0322916,1
0,0.1,-0.03125,1
5.42101e-20,0.1,-0.0302083,1
1.0842e-19,0.1,-0.0291667,1
5.42101e-20,0.1,-0.028125,1
0,0.1,-0.0270833,1
0,0.1,-0.0260416,1
0,0.1,-0.025,1
-5.42101e-20,0.1,-0.0239583,1
-1.0842e-19,0.1,-0.0229167,1
-1.85077e-19,0.1,-0.021875,1
-2.61733e-19,0.1,-0.0208333,1
-2.93497e-19,0.1,-0.0197916,1
-3.25261e-19,0.1,-0.01875,1
-1.0842e-19,0.1,-0.0177083,1
1.0842e-19,0.1,-0.0166667,1
5.42101e-20,0.1,-0.015625,1
0,0.1,-0.0145834,1
1.0842e-19,0.1,-0.0135417,1
2.1684e-19,0.1,-0.0125,0.999999
3.79471e-19,0.1,-0.0114583,0.999999
5.42101e-19,0.1,-0.0104167,0.999998
3.77353e-19,0.1,-0.00937501,0.999998
2.12605e-19,0.1,-0.00833333,0.999998
5.2516e-20,0.1,-0.00833333,0.999966
-2.79521e-20,0.1,-0.00729166,0.999966
-1.0842e-19,0.1,-0.00625,0.999111
-6.87155e-20,0.1,-0.00520833,0.999111
-2.90109e-20,0.1,-0.00416667,0.980814
-6.87155e-20,0.1,-0.003125,0.980814
-1.0842e-19,0.1,-0.00208333,0.769798
-5.42101e-20,0.1,-0.00104166,0.769798
0,0.1,8.31208e-11,0.240749
-5.42101e-20,0.1,0.00104167,0.240749
-1.0842e-19,0.1,0.00208334,0.0222876
-5.42101e-20,0.1,0.003125,0.0222876
0,0.1,0.00416667,0.000429746
2.71051e-19,0.1,0.00520833,0.000429746
5.42101e-19,0.1,0.00625,2.56232e-05
4.33681e-19,0.1,0.00729166,2.56232e-05
3.25261e-19,0.1,0.00833333,2.9691e-06
2.1684e-19,0.1,0.00937501,2.9691e-06
1.0842e-19,0.1,0.0104167,3.49416e-07
7.26331e-20,0.1,0.0114583,3.49416e-07
3.68459e-20,0.1,0.0125,3.72984e-08
-8.99973e-20,0.1,0.0135417,3.72984e-08
-2.1684e-19,0.1,0.0145834,2.3313e-09
-3.25261e-19,0.1,0.015625,2.3313e-09
-4.33681e-19,0.1,0.0166667,1.76758e-10
-4.87891e-19,0.1,0.0177083,1.76758e-10
-5.42101e-19,0.1,0.01875,1.19149e-11
-4.87891e-19,0.1,0.0197916,1.19149e-11
-4.33681e-19,0.1,0.0208333,1.00947e-11
-4.87891e-19,0.1,0.0218749,1.00947e-11
-5.42101e-19,0.1,0.0229166,4.71794e-12
-3.79471e-19,0.1,0.0239583,4.71794e-12
-2.1684e-19,0.1,0.025,2.04615e-12
-2.71051e-19,0.1,0.0260417,2.04615e-12
-3.25261e-19,0.1,0.0270834,6.17598e-13
-2.40981e-19,0.1,0.028125,6.17598e-13
-1.56701e-19,0.1,0.0291667,8.79961e-14
-2.95191e-19,0.1,0.0302083,8.79961e-14
-4.33681e-19,0.1,0.03125,6.14379e-15
-3.79471e-19,0.1,0.0322917,6.14379e-15
-3.25261e-19,0.1,0.0333333,3.62249e-16
-3.25261e-19,0.1,0.034375,3.62249e-16
-3.25261e-19,0.1,0.0354166,2.62622e-17
-3.25261e-19,0.1,0.0364583,2.62622e-17
-3.25261e-19,0.1,0.0375,2.2865e-18
-3.79471e-19,0.1,0.0385417,2.2865e-18
-4.33681e-19,0.1,0.0395834,2.37346e-19
-4.33681e-19,0.1,0.0406251,2.37346e-19
-4.33681e-19,0.1,0.0416667,2.98363e-20
-4.33681e-19,0.1,0.0427084,2.98363e-20
-4.33681e-19,0.1,0.04375,4.20124e-21
-5.50148e-19,0.1,0.0447917,4.20124e-21
-6.66615e-19,0.1,0.0458334,6.13713e-22
-5.50148e-19,0.1,0.0468751,6.13713e-22
-4.33681e-19,0.1,0.0479167,8.6646e-23
-7.04731e-19,0.1,0.0489584,8.6646e-23
-9.75782e-19,0.1,0.0500001,1.17343e-23
-7.58942e-19,0.1,0.0510418,1.17343e-23
-5.42101e-19,0.1,0.0520836,1.53186e-24
-4.33681e-19,0.1,0.0531252,1.53186e-24
-3.25261e-19,0.1,0.0541669,1.95221e-25
-3.25261e-19,0.1,0.0552086,1.95221e-25
-3.25261e-19,0.1,0.0562503,2.45289e-26
-3.25261e-19,0.1,0.057292,2.45289e-26
-3.25261e-19,0.1,0.0583337,3.03702e-27
-2.71051e-19,0.1,0.0593755,3.03702e-27
-2.1684e-19,0.1,0.0604172,3.7029e-28
-5.71747e-20,0.1,0.0614589,3.7029e-28
1.02491e-19,0.1,0.0625006,4.41936e-29
5.12455e-20,0.1,0.0635424,4.41936e-29
0,0.1,0.0645842,5.17655e-30
5.42101e-20,0.1,0.0656259,5.17655e-30
1.0842e-19,0.1,0.0666676,5.92109e-31
2.1684e-19,0.1,0.0677095,5.92109e-31
3.25261e-19,0.1,0.0687513,6.61921e-32
2.1684e-19,0.1,0.0697931,6.61921e-32
1.0842e-19,0.1,0.0708348,7.17638e-33
2.71051e-19,0.1,0.0718768,7.17638e-33
4.33681e-19,0.1,0.0729187,7.60416e-34
2.1684e-19,0.1,0.0739605,7.60416e-34
0,0.1,0.0750022,7.73063e-35
0,0.1,0.0760443,7.73063e-35
0,0.1,0.0770863,7.38109e-36
0,0.1,0.0781282,7.38109e-36
0,0.1,0.0791701,7.38109e-36
-1.11808e-19,0.1,0.0791701,9.29384e-37
-5.59042e-20,0.1,0.0812543,9.29384e-37
0,0.1,0.0833385,2.48487e-36
2.4564e-19,0.1,0.0875101,2.48487e-36
4.91279e-19,0.1,0.0916817,4.10413e-37
4.6248e-19,0.1,0.0958549,4.10413e-37
4.33681e-19,0.1,0.100028,6.63754e-35
0,0.1,0.108387,6.63754e-35
-4.33681e-19,0.1,0.116747,6.47251e-36
-8.67362e-19,0.1,0.125112,6.47251e-36
-1.30104e-18,0.1,0.133477,4.27498e-38
