x,y,z,alpha.water
0,0.15,-0.125,1
0,0.15,-0.120833,1
6.50521e-19,0.15,-0.116667,1
0,0.15,-0.116667,1
7.86047e-19,0.15,-0.1125,1
9.21572e-19,0.15,-0.108333,1
1.21973e-18,0.15,-0.104167,1
1.51788e-18,0.15,-0.1,1
1.6263e-18,0.15,-0.0958334,1
1.73472e-18,0.15,-0.0916667,1
1.57209e-18,0.15,-0.0875,1
1.40946e-18,0.15,-0.0833333,1
1.35525e-18,0.15,-0.08125,1
1.30104e-18,0.15,-0.0791667,1
1.35525e-18,0.15,-0.0781251,1
1.40946e-18,0.15,-0.0770835,1
1.40946e-18,0.15,-0.0760417,1
1.40946e-18,0.15,-0.075,1
1.30104e-18,0.15,-0.0739583,1
1.19262e-18,0.15,-0.0729166,1
1.28749e-18,0.15,-0.071875,1
1.38236e-18,0.15,-0.0708333,1
1.50433e-18,0.15,-0.0697917,1
1.6263e-18,0.15,-0.0687501,1
1.51788e-18,0.15,-0.0677084,1
1.40946e-18,0.15,-0.0666667,1
1.30104e-18,0.15,-0.0656251,1
1.19262e-18,0.15,-0.0645834,1
9.21572e-19,0.15,-0.0635417,1
6.50521e-19,0.15,-0.0625,1
8.13152e-19,0.15,-0.0614583,1
9.75782e-19,0.15,-0.0604166,1
8.13152e-19,0.15,-0.0593749,1
6.50521e-19,0.15,-0.0583333,1
5.42101e-19,0.15,-0.0572917,1
4.33681e-19,0.15,-0.05625,1
5.14996e-19,0.15,-0.0552084,1
5.96311e-19,0.15,-0.0541667,1
5.14996e-19,0.15,-0.0531251,1
4.33681e-19,0.15,-0.0520834,1
4.87891e-19,0.15,-0.0510417,1
5.42101e-19,0.15,-0.05,1
4.87891e-19,0.15,-0.0489584,1
4.33681e-19,0.15,-0.0479167,1
4.87891e-19,0.15,-0.046875,1
5.42101e-19,0.15,-0.0458333,1
7.04731e-19,0.15,-0.0447917,1
8.67362e-19,0.15,-0.04375,1
8.13152e-19,0.15,-0.0427084,1
7.58942e-19,0.15,-0.0416667,1
7.04731e-19,0.15,-0.040625,1
6.50521e-19,0.15,-0.0395834,1
6.64074e-19,0.15,-0.0385417,1
6.77626e-19,0.15,-0.0375,1
7.18284e-19,0.15,-0.0364583,1
7.58942e-19,0.15,-0.0354166,1
8.67362e-19,0.15,-0.034375,1
9.75782e-19,0.15,-0.0333333,1
9.21572e-19,0.15,-0.0322917,1
8.67362e-19,0.15,-0.03125,1
9.75782e-19,0.15,-0.0302084,1
1.0842e-18,0.15,-0.0291667,1
1.02999e-18,0.15,-0.028125,1
9.75782e-19,0.15,-0.0270833,1
9.75782e-19,0.15,-0.0260417,1
9.75782e-19,0.15,-0.025,1
9.75782e-19,0.15,-0.0239584,1
9.75782e-19,0.15,-0.0229167,1
9.89334e-19,0.15,-0.021875,1
1.00289e-18,0.15,-0.0208333,1
9.35124e-19,0.15,-0.0197917,1
8.67362e-19,0.15,-0.01875,1
9.21572e-19,0.15,-0.0177084,1
9.75782e-19,0.15,-0.0166667,1
1.02999e-18,0.15,-0.0156251,1
1.0842e-18,0.15,-0.0145834,1
1.02999e-18,0.15,-0.0135417,1
9.75782e-19,0.15,-0.0125,1
-1.0842e-19,0.15,-0.0125,0.999999
1.0842e-19,0.15,-0.0114583,0.999999
3.25261e-19,0.15,-0.0104167,0.999986
3.25261e-19,0.15,-0.00937501,0.999986
3.25261e-19,0.15,-0.00833333,0.99967
3.25261e-19,0.15,-0.00729166,0.99967
3.25261e-19,0.15,-0.00625,0.989127
3.11708e-19,0.15,-0.00520833,0.989127
2.98156e-19,0.15,-0.00416667,0.827723
3.11708e-19,0.15,-0.003125,0.827723
3.25261e-19,0.15,-0.00208333,0.272489
3.25261e-19,0.15,-0.00104166,0.272489
3.25261e-19,0.15,1.42082e-11,0.0165903
3.79471e-19,0.15,0.00104167,0.0165903
4.33681e-19,0.15,0.00208334,0.000186597
5.42101e-19,0.15,0.003125,0.000186597
6.50521e-19,0.15,0.00416667,2.33909e-05
5.42101e-19,0.15,0.00520833,2.33909e-05
4.33681e-19,0.15,0.00625,3.04918e-06
4.33681e-19,0.15,0.00729166,3.04918e-06
4.33681e-19,0.15,0.00833333,1.17234e-07
4.33681e-19,0.15,0.00937501,1.17234e-07
4.33681e-19,0.15,0.0104167,4.73038e-09
4.60786e-19,0.15,0.0114583,4.73038e-09
4.87891e-19,0.15,0.0125,2.53083e-10
4.06576e-19,0.15,0.0135417,2.53083e-10
3.25261e-19,0.15,0.0145834,5.08417e-11
3.25261e-19,0.15,0.015625,5.08417e-11
3.25261e-19,0.15,0.0166667,2.24834e-11
3.25261e-19,0.15,0.0177083,2.24834e-11
3.25261e-19,0.15,0.01875,8.2841e-12
3.79471e-19,0.15,0.0197916,8.2841e-12
4.33681e-19,0.15,0.0208333,2.44575e-12
3.79471e-19,0.15,0.021875,2.44575e-12
3.25261e-19,0.15,0.0229166,6.3697e-13
3.25261e-19,0.15,0.0239583,6.3697e-13
3.25261e-19,0.15,0.025,1.58604e-13
4.33681e-19,0.15,0.0260417,1.58604e-13
5.42101e-19,0.15,0.0270833,4.26382e-14
4.33681e-19,0.15,0.028125,4.26382e-14
3.25261e-19,0.15,0.0291667,1.28991e-14
3.25261e-19,0.15,0.0302083,1.28991e-14
3.25261e-19,0.15,0.03125,4.19528e-15
4.33681e-19,0.15,0.0322916,4.19528e-15
5.42101e-19,0.15,0.0333333,1.40499e-15
5.96311e-19,0.15,0.034375,1.40499e-15
6.50521e-19,0.15,0.0354166,4.62865e-16
5.96311e-19,0.15,0.0364583,4.62865e-16
5.42101e-19,0.15,0.0375,1.40858e-16
4.87891e-19,0.15,0.0385417,1.40858e-16
4.33681e-19,0.15,0.0395834,3.77908e-17
3.79471e-19,0.15,0.040625,3.77908e-17
3.25261e-19,0.15,0.0416667,8.89244e-18
5.42101e-19,0.15,0.0427083,8.89244e-18
7.58942e-19,0.15,0.04375,1.90055e-18
6.64074e-19,0.15,0.0447917,1.90055e-18
5.69206e-19,0.15,0.0458333,3.8903e-19
4.47233e-19,0.15,0.046875,3.8903e-19
3.25261e-19,0.15,0.0479167,7.94888e-20
3.79471e-19,0.15,0.0489583,7.94888e-20
4.33681e-19,0.15,0.05,1.64136e-20
5.96311e-19,0.15,0.0510417,1.64136e-20
7.58942e-19,0.15,0.0520834,3.3881e-21
7.04731e-19,0.15,0.053125,3.3881e-21
6.50521e-19,0.15,0.0541667,6.86755e-22
4.87891e-19,0.15,0.0552084,6.86755e-22
3.25261e-19,0.15,0.0562501,1.34269e-22
2.71051e-19,0.15,0.0572917,1.34269e-22
2.1684e-19,0.15,0.0583334,2.5093e-23
5.42101e-20,0.15,0.0593751,2.5093e-23
-1.0842e-19,0.15,0.0604168,4.45774e-24
-2.43945e-19,0.15,0.0614584,4.45774e-24
-3.79471e-19,0.15,0.0625001,7.53846e-25
-2.98156e-19,0.15,0.0635418,7.53846e-25
-2.1684e-19,0.15,0.0645835,1.21762e-25
-5.42101e-20,0.15,0.0656252,1.21762e-25
1.0842e-19,0.15,0.0666668,1.88962e-26
0,0.15,0.0677085,1.88962e-26
-1.0842e-19,0.15,0.0687503,2.82978e-27
0,0.15,0.0697919,2.82978e-27
1.0842e-19,0.15,0.0708336,4.10741e-28
0,0.15,0.0718753,4.10741e-28
-1.0842e-19,0.15,0.0729171,5.79239e-29
-5.42101e-20,0.15,0.0739588,5.79239e-29
0,0.15,0.0750004,7.88252e-30
-7.11508e-20,0.15,0.0760422,7.88252e-30
-1.0842e-19,0.15,0.077084,1.25504e-30
-1.42302e-19,0.15,0.077084,7.88252e-30
1.35525e-20,0.15,0.0781256,1.25504e-30
1.35525e-19,0.15,0.0791672,3.67673e-31
2.30393e-19,0.15,0.0812507,3.67673e-31
3.25261e-19,0.15,0.0833342,5.84441e-31
5.42101e-20,0.15,0.0875017,5.84441e-31
-2.1684e-19,0.15,0.0916692,5.43023e-32
-2.1684e-19,0.15,0.0958366,5.43023e-32
-2.1684e-19,0.15,0.100004,5.41564e-31
-9.75782e-19,0.15,0.108341,5.41564e-31
-1.73472e-18,0.15,0.116679,1.60183e-32
-1.30104e-18,0.15,0.125018,1.60183e-32
-8.67362e-19,0.15,0.133358,8.43021e-35
