x,y,z,alpha.water
0,0.15,-0.125,1
5.42101e-20,0.15,-0.120834,1
1.0842e-19,0.15,-0.116667,1
1.0842e-19,0.15,-0.116667,1
6.77626e-20,0.15,-0.1125,1
2.71051e-20,0.15,-0.108333,1
4.47233e-19,0.15,-0.104167,1
8.67362e-19,0.15,-0.1,1
5.42101e-19,0.15,-0.0958334,1
2.1684e-19,0.15,-0.0916667,1
2.1684e-19,0.15,-0.0875,1
2.1684e-19,0.15,-0.0833333,1
-5.42101e-20,0.15,-0.08125,1
-3.25261e-19,0.15,-0.0791667,1
-1.6263e-19,0.15,-0.0781251,1
0,0.15,-0.0770835,1
-5.42101e-20,0.15,-0.0760417,1
-1.0842e-19,0.15,-0.075,1
1.6263e-19,0.15,-0.0739583,1
4.33681e-19,0.15,-0.0729166,1
5.69206e-19,0.15,-0.071875,1
7.04731e-19,0.15,-0.0708333,1
1.0571e-18,0.15,-0.0697917,1
1.40946e-18,0.15,-0.0687501,1
1.46367e-18,0.15,-0.0677084,1
1.51788e-18,0.15,-0.0666667,1
1.40946e-18,0.15,-0.065625,1
1.30104e-18,0.15,-0.0645834,1
1.13841e-18,0.15,-0.0635417,1
9.75782e-19,0.15,-0.0625,1
1.02999e-18,0.15,-0.0614583,1
1.0842e-18,0.15,-0.0604166,1
9.75782e-19,0.15,-0.059375,1
8.67362e-19,0.15,-0.0583333,1
8.67362e-19,0.15,-0.0572917,1
8.67362e-19,0.15,-0.05625,1
8.53809e-19,0.15,-0.0552084,1
8.40257e-19,0.15,-0.0541667,1
9.08019e-19,0.15,-0.053125,1
9.75782e-19,0.15,-0.0520834,1
9.75782e-19,0.15,-0.0510417,1
9.75782e-19,0.15,-0.05,1
9.75782e-19,0.15,-0.0489583,1
9.75782e-19,0.15,-0.0479167,1
7.58942e-19,0.15,-0.046875,1
5.42101e-19,0.15,-0.0458333,1
4.87891e-19,0.15,-0.0447916,1
4.33681e-19,0.15,-0.04375,1
3.79471e-19,0.15,-0.0427083,1
3.25261e-19,0.15,-0.0416667,1
2.1684e-19,0.15,-0.040625,1
1.0842e-19,0.15,-0.0395834,1
-1.35525e-20,0.15,-0.0385417,1
-1.35525e-19,0.15,-0.0375,1
-6.77626e-20,0.15,-0.0364583,1
0,0.15,-0.0354166,1
5.42101e-20,0.15,-0.034375,1
1.0842e-19,0.15,-0.0333333,0.999999
1.0842e-19,0.15,-0.0322916,0.999999
1.0842e-19,0.15,-0.03125,0.999998
0,0.15,-0.0302083,0.999998
-1.0842e-19,0.15,-0.0291667,0.999998
-1.6263e-19,0.15,-0.028125,0.999998
-2.1684e-19,0.15,-0.0270833,0.999998
-1.6263e-19,0.15,-0.0260417,0.999998
-1.0842e-19,0.15,-0.025,1
-1.0842e-19,0.15,-0.0239584,1
-1.0842e-19,0.15,-0.0229167,1
-1.49078e-19,0.15,-0.021875,1
-1.89735e-19,0.15,-0.0208333,1
-9.48677e-20,0.15,-0.0197916,1
0,0.15,-0.01875,1
5.42101e-20,0.15,-0.0177083,1
1.0842e-19,0.15,-0.0166667,1
1.0842e-19,0.15,-0.0156251,1
1.0842e-19,0.15,-0.0145834,1
0,0.15,-0.0135417,1
-1.0842e-19,0.15,-0.0125,1
-2.43945e-19,0.15,-0.0125,0.999999
-2.30393e-19,0.15,-0.0114584,0.999999
-2.1684e-19,0.15,-0.0104167,1
-2.1684e-19,0.15,-0.00937502,1
-2.1684e-19,0.15,-0.00833333,0.999985
-2.1684e-19,0.15,-0.00729167,0.999985
-2.1684e-19,0.15,-0.00625,0.99959
-2.43945e-19,0.15,-0.00520834,0.99959
-2.71051e-19,0.15,-0.00416667,0.99243
-2.43945e-19,0.15,-0.003125,0.99243
-2.1684e-19,0.15,-0.00208333,0.926387
-2.1684e-19,0.15,-0.00104166,0.926387
-2.1684e-19,0.15,1.4172e-11,0.445369
-2.1684e-19,0.15,0.00104167,0.445369
-2.1684e-19,0.15,0.00208334,0.0535122
-2.1684e-19,0.15,0.00312501,0.0535122
-2.1684e-19,0.15,0.00416667,0.000674585
-2.71051e-19,0.15,0.00520834,0.000674585
-3.25261e-19,0.15,0.00625,2.21823e-05
-3.25261e-19,0.15,0.00729167,2.21823e-05
-3.25261e-19,0.15,0.00833333,5.72808e-06
-3.25261e-19,0.15,0.00937502,5.72808e-06
-3.25261e-19,0.15,0.0104167,4.42669e-06
-3.52366e-19,0.15,0.0114584,4.42669e-06
-3.79471e-19,0.15,0.0125,1.33868e-06
-4.06576e-19,0.15,0.0135417,1.33868e-06
-4.33681e-19,0.15,0.0145834,9.68479e-08
-3.79471e-19,0.15,0.015625,9.68479e-08
-3.25261e-19,0.15,0.0166667,5.9786e-09
-3.25261e-19,0.15,0.0177083,5.9786e-09
-3.25261e-19,0.15,0.01875,2.19965e-09
-3.25261e-19,0.15,0.0197917,2.19965e-09
-3.25261e-19,0.15,0.0208333,2.09774e-09
-2.1684e-19,0.15,0.021875,2.09774e-09
-1.0842e-19,0.15,0.0229166,1.20849e-09
-1.0842e-19,0.15,0.0239583,1.20849e-09
-1.0842e-19,0.15,0.025,8.96041e-10
-1.6263e-19,0.15,0.0260417,8.96041e-10
-2.1684e-19,0.15,0.0270833,1.38714e-09
-1.76183e-19,0.15,0.028125,1.38714e-09
-1.35525e-19,0.15,0.0291667,2.05475e-09
-1.21973e-19,0.15,0.0302083,2.05475e-09
-1.0842e-19,0.15,0.03125,2.2701e-09
-1.6263e-19,0.15,0.0322916,2.2701e-09
-2.1684e-19,0.15,0.0333333,2.11024e-09
-2.71051e-19,0.15,0.034375,2.11024e-09
-3.25261e-19,0.15,0.0354166,2.21664e-09
-2.71051e-19,0.15,0.0364583,2.21664e-09
-2.1684e-19,0.15,0.0375,3.37645e-09
-1.0842e-19,0.15,0.0385417,3.37645e-09
0,0.15,0.0395834,3.79721e-09
0,0.15,0.040625,3.79721e-09
0,0.15,0.0416667,2.49923e-09
5.42101e-20,0.15,0.0427083,2.49923e-09
1.0842e-19,0.15,0.04375,2.0305e-09
-1.35525e-20,0.15,0.0447917,2.0305e-09
-1.35525e-19,0.15,0.0458333,2.12116e-09
-6.77626e-20,0.15,0.046875,2.12116e-09
0,0.15,0.0479167,2.15208e-09
0,0.15,0.0489583,2.15208e-09
0,0.15,0.05,2.0798e-09
1.6263e-19,0.15,0.0510417,2.0798e-09
3.25261e-19,0.15,0.0520834,1.95462e-09
2.1684e-19,0.15,0.053125,1.95462e-09
1.0842e-19,0.15,0.0541667,1.9152e-09
2.71051e-19,0.15,0.0552084,1.9152e-09
4.33681e-19,0.15,0.0562501,1.94072e-09
2.71051e-19,0.15,0.0572917,1.94072e-09
1.0842e-19,0.15,0.0583334,1.91511e-09
0,0.15,0.0593751,1.91511e-09
-1.0842e-19,0.15,0.0604168,1.90233e-09
-8.13152e-20,0.15,0.0614584,1.90233e-09
-5.42101e-20,0.15,0.0625001,1.96433e-09
1.89735e-19,0.15,0.0635418,1.96433e-09
4.33681e-19,0.15,0.0645835,1.97312e-09
5.96311e-19,0.15,0.0656252,1.97312e-09
7.58942e-19,0.15,0.0666668,1.93527e-09
7.04731e-19,0.15,0.0677085,1.93527e-09
6.50521e-19,0.15,0.0687503,1.89131e-09
7.04731e-19,0.15,0.0697919,1.89131e-09
7.58942e-19,0.15,0.0708336,2.05229e-09
7.58942e-19,0.15,0.0718753,2.05229e-09
7.58942e-19,0.15,0.0729171,2.60197e-09
6.50521e-19,0.15,0.0739588,2.60197e-09
5.42101e-19,0.15,0.0750004,2.95323e-09
4.13352e-19,0.15,0.0760422,2.95323e-09
0,0.15,0.077084,2.76448e-09
2.84603e-19,0.15,0.077084,2.95323e-09
0,0.15,0.0781256,2.76448e-09
0,0.15,0.0791672,2.64557e-09
2.71051e-19,0.15,0.0812507,2.64557e-09
5.42101e-19,0.15,0.0833342,2.87245e-09
2.71051e-19,0.15,0.0875017,2.87245e-09
0,0.15,0.0916692,3.28473e-09
-1.0842e-19,0.15,0.0958366,3.28473e-09
-2.1684e-19,0.15,0.100004,3.65304e-09
-3.25261e-19,0.15,0.108342,3.65304e-09
-4.33681e-19,0.15,0.116679,4.28993e-09
-4.33681e-19,0.15,0.125019,4.28993e-09
-4.33681e-19,0.15,0.133358,4.69102e-09
