x,y,z,alpha.water
0.15,-1.00648e-18,-0.119949,1
0.15,-1.00648e-18,-0.116824,1
0.15,-1.00647e-18,-0.113699,1.00001
0.15,-1.00648e-18,-0.110574,1.00001
0.15,-1.00649e-18,-0.107449,1.00001
0.15,-3.13775e-08,-0.107449,1.00001
0.15,-3.13775e-08,-0.104324,1.00001
0.15,-3.13775e-08,-0.101199,1
0.15,-3.13775e-08,-0.0980744,1
0.15,-3.13775e-08,-0.0949494,1
0.15,-3.13775e-08,-0.0918244,1
0.15,-3.13775e-08,-0.0886994,1
0.15,-3.13775e-08,-0.0855744,1
0.15,-3.13775e-08,-0.0824494,1
0.15,-3.13775e-08,-0.0793244,1
0.15,-3.13775e-08,-0.0761994,1
0.15,-3.13775e-08,-0.0730744,1
0.15,-3.13775e-08,-0.0699494,1
0.15,-3.13775e-08,-0.0668244,1
0.15,-3.13775e-08,-0.0636994,1
0.15,-3.13775e-08,-0.0605744,1
0.15,-3.13775e-08,-0.0574494,1
0.15,-3.13775e-08,-0.0543244,1
0.15,-3.13775e-08,-0.0511994,1
0.15,-3.13775e-08,-0.0480744,1
0.15,-3.13775e-08,-0.0449494,1
0.15,-3.13775e-08,-0.0418244,1
0.15,-3.13775e-08,-0.0386994,1
0.15,-3.13775e-08,-0.0355744,1
0.15,-3.13775e-08,-0.0324494,1
0.15,-3.13775e-08,-0.0293244,1
0.15,-3.13775e-08,-0.0261994,1.00001
0.15,-3.13775e-08,-0.0230744,1.00001
0.15,-3.13775e-08,-0.0199494,1.00001
0.15,-3.13775e-08,-0.0199494,1
0.15,-3.13775e-08,-0.0168244,1
0.15,-3.13775e-08,-0.0136994,1
0.15,-3.13775e-08,-0.0105744,1
0.15,-3.13775e-08,-0.00744943,0.999999
0.15,-3.13775e-08,-0.00432441,0.999999
0.15,-3.13775e-08,-0.00119939,0.999506
0.15,-3.13775e-08,0.00192561,0.999506
0.15,-3.13775e-08,0.00505061,0.207956
0.15,-3.13775e-08,0.00817562,0.207956
0.15,-3.13775e-08,0.0113006,0.0151137
0.15,-3.13775e-08,0.0144256,0.0151137
0.15,-3.13775e-08,0.0175506,0.000688124
0.15,-3.13775e-08,0.0206756,0.000688124
0.15,-3.13775e-08,0.0238007,1.36295e-05
0.15,-3.13775e-08,0.0269257,1.36295e-05
0.15,-3.13775e-08,0.0300507,3.94944e-07
0.15,-3.13775e-08,0.0331757,3.94944e-07
0.15,-3.13775e-08,0.0363007,1.49731e-08
0.15,-3.13775e-08,0.0394257,1.49731e-08
0.15,-3.13775e-08,0.0425507,5.32504e-10
0.15,-3.13775e-08,0.0456757,5.32504e-10
0.15,-3.13775e-08,0.0488007,1.94909e-11
0.15,-3.13775e-08,0.0519257,1.94909e-11
0.15,-3.13775e-08,0.0550507,7.11259e-13
0.15,-3.13775e-08,0.0581757,7.11259e-13
0.15,-3.13775e-08,0.0613006,2.57301e-14
0.15,-3.13775e-08,0.0644256,2.57301e-14
0.15,-3.13775e-08,0.0675506,9.22267e-16
0.15,-3.13775e-08,0.0706757,9.22267e-16
0.15,-3.13775e-08,0.0738007,3.25107e-17
0.15,-3.13775e-08,0.0769258,3.25107e-17
0.15,-3.13775e-08,0.0800508,1.11908e-18
0.15,-3.13775e-08,0.0831759,1.11908e-18
0.15,-3.13775e-08,0.0863011,3.74043e-20
0.15,-3.13775e-08,0.0894262,3.74043e-20
0.15,-3.13775e-08,0.0925514,1.2088e-21
0.15,-3.13775e-08,0.0956767,1.2088e-21
0.15,-3.13775e-08,0.098802,3.92257e-23
0.15,-3.13775e-08,0.101928,3.92257e-23
0.15,-3.13775e-08,0.105053,3.35663e-22
0.15,-3.13775e-08,0.111305,3.35663e-22
0.15,-3.13775e-08,0.117557,8.04654e-24
0.15,-3.13775e-08,0.123812,8.04654e-24
0.15,-3.13775e-08,0.130067,4.86658e-23
