# Field minima and maxima
# Time          	field           	min             	location(min)   	processor       	max             	location(max)   	processor       
0.203333        	mag(U)          	0.00000000e+00	(2.24898417e-01 5.00000000e-01 4.24990750e-01)	0	1.22697938e+00	(9.30240184e-02 1.85424512e-01 4.91306241e-01)	15
0.205556        	mag(U)          	0.00000000e+00	(2.24898417e-01 5.00000000e-01 4.24990750e-01)	0	9.76438946e-01	(1.18360261e-01 -1.73412380e-01 4.91578034e-01)	16
0.207778        	mag(U)          	0.00000000e+00	(2.24898417e-01 5.00000000e-01 4.24990750e-01)	0	1.00794423e+00	(1.18628903e-01 -1.73369708e-01 4.91845972e-01)	16
0.21            	mag(U)          	0.00000000e+00	(2.24898417e-01 5.00000000e-01 4.24990750e-01)	0	1.24492014e+00	(1.06550993e-01 1.79187066e-01 4.92110091e-01)	15
0.2125          	mag(U)          	0.00000000e+00	(2.24898417e-01 5.00000000e-01 4.24990750e-01)	0	1.22756048e+00	(1.06855522e-01 1.78857381e-01 4.92402782e-01)	15
0.215           	mag(U)          	0.00000000e+00	(2.24898417e-01 5.00000000e-01 4.24990750e-01)	0	1.14007171e+00	(1.19508781e-01 -1.73804927e-01 4.92690743e-01)	16
0.2175          	mag(U)          	0.00000000e+00	(2.24898417e-01 5.00000000e-01 4.24990750e-01)	0	1.08958055e+00	(1.19815542e-01 -1.73677911e-01 4.92973833e-01)	16
0.22            	mag(U)          	0.00000000e+00	(2.24898417e-01 5.00000000e-01 4.24990750e-01)	0	1.38269879e+00	(1.20123305e-01 1.71964640e-01 4.93252097e-01)	15
0.221667        	mag(U)          	0.00000000e+00	(2.24898417e-01 5.00000000e-01 4.24990750e-01)	0	1.36395075e+00	(1.20329002e-01 1.71628817e-01 4.93434917e-01)	15
0.22375         	mag(U)          	0.00000000e+00	(2.24898417e-01 5.00000000e-01 4.24990750e-01)	0	1.11462760e+00	(3.20742529e-02 -2.03416548e-01 4.87409921e-01)	16
0.225833        	mag(U)          	0.00000000e+00	(2.24898417e-01 5.00000000e-01 4.24990750e-01)	0	1.05213102e+00	(1.08497320e-01 -1.81069261e-01 4.93882458e-01)	16
0.227917        	mag(U)          	0.00000000e+00	(2.24898417e-01 5.00000000e-01 4.24990750e-01)	0	1.56742892e+00	(-4.07422440e-03 2.00647850e-01 5.00350541e-01)	14
0.228958        	mag(U)          	0.00000000e+00	(2.24898417e-01 5.00000000e-01 4.24990750e-01)	0	1.67997576e+00	(-3.94466793e-03 2.00311020e-01 5.00458630e-01)	14
0.23            	mag(U)          	0.00000000e+00	(2.24898417e-01 5.00000000e-01 4.24990750e-01)	0	1.11273568e+00	(1.21362835e-01 1.70756945e-01 5.00566605e-01)	15
0.23125         	mag(U)          	0.00000000e+00	(2.24898417e-01 5.00000000e-01 4.24990750e-01)	0	1.16786842e+00	(1.21518580e-01 1.70605928e-01 5.00694182e-01)	15
0.232708        	mag(U)          	0.00000000e+00	(2.24898417e-01 5.00000000e-01 4.24990750e-01)	0	2.63435974e+00	(-5.36750917e-02 -1.93746104e-01 4.88340419e-01)	16
0.23362         	mag(U)          	0.00000000e+00	(2.24898417e-01 5.00000000e-01 4.24990750e-01)	0	2.70732320e+00	(-5.35613180e-02 -1.94198479e-01 4.88431622e-01)	16
0.234531        	mag(U)          	0.00000000e+00	(2.24898417e-01 5.00000000e-01 4.24990750e-01)	0	1.25856330e+00	(1.49099677e-02 1.98472236e-01 5.13522591e-01)	15
0.235625        	mag(U)          	0.00000000e+00	(2.24898417e-01 5.00000000e-01 4.24990750e-01)	0	1.35364600e+00	(9.10099702e-02 1.82032299e-01 5.07380335e-01)	15
0.237083        	mag(U)          	0.00000000e+00	(2.24898417e-01 5.00000000e-01 4.24990750e-01)	0	4.92007070e+00	(-3.42720874e-02 -2.01798563e-01 4.82522362e-01)	16
0.237667        	mag(U)          	0.00000000e+00	(2.24898417e-01 5.00000000e-01 4.24990750e-01)	0	5.70439346e+00	(-5.30553582e-02 -1.96183791e-01 4.82578685e-01)	16
0.238133        	mag(U)          	0.00000000e+00	(2.24898417e-01 5.00000000e-01 4.24990750e-01)	0	2.78448115e+00	(-3.41406797e-02 -2.02552039e-01 4.82623764e-01)	16
0.238756        	mag(U)          	0.00000000e+00	(2.24898417e-01 5.00000000e-01 4.24990750e-01)	0	2.59835133e+00	(-3.40627774e-02 -2.02894741e-01 4.82683444e-01)	16
0.239378        	mag(U)          	0.00000000e+00	(2.24898417e-01 5.00000000e-01 4.24990750e-01)	0	7.71672204e+00	(-3.39848134e-02 -2.03511970e-01 4.76492820e-01)	16
0.24            	mag(U)          	0.00000000e+00	(2.24898417e-01 5.00000000e-01 4.24990750e-01)	0	6.54868142e+00	(-3.39068685e-02 -2.04112460e-01 4.76551892e-01)	16
0.240476        	mag(U)          	0.00000000e+00	(2.24898417e-01 5.00000000e-01 4.24990750e-01)	0	2.20975644e+00	(-4.10048541e-02 1.89487738e-01 7.12967369e-01)	8
0.241036        	mag(U)          	0.00000000e+00	(2.24898417e-01 5.00000000e-01 4.24990750e-01)	0	3.41828368e+00	(-3.37769959e-02 -2.04701493e-01 4.76649608e-01)	16
0.241677        	mag(U)          	0.00000000e+00	(2.24898417e-01 5.00000000e-01 4.24990750e-01)	0	1.04992082e+01	(-3.36967005e-02 -2.05555968e-01 4.70459551e-01)	16
0.24201         	mag(U)          	0.00000000e+00	(2.24898417e-01 5.00000000e-01 4.24990750e-01)	0	9.60563499e+00	(-3.36549611e-02 -2.05998411e-01 4.70490593e-01)	16
0.242357        	mag(U)          	0.00000000e+00	(2.24898417e-01 5.00000000e-01 4.24990750e-01)	0	4.25402825e+00	(-2.26986895e-03 -2.12100570e-01 4.70523098e-01)	16
0.242782        	mag(U)          	0.00000000e+00	(2.24898417e-01 5.00000000e-01 4.24990750e-01)	0	5.11403376e+00	(-2.21662408e-03 -2.12516403e-01 4.70562446e-01)	16
0.243263        	mag(U)          	0.00000000e+00	(2.24898417e-01 5.00000000e-01 4.24990750e-01)	0	1.44051695e+01	(-2.15623064e-03 -2.13353896e-01 4.64356870e-01)	16
0.243522        	mag(U)          	0.00000000e+00	(2.24898417e-01 5.00000000e-01 4.24990750e-01)	0	1.30158359e+01	(-3.34652633e-02 -2.07979221e-01 4.64380507e-01)	16
0.243792        	mag(U)          	0.00000000e+00	(2.24898417e-01 5.00000000e-01 4.24990750e-01)	0	6.06350455e+00	(-2.08987278e-03 -2.14110007e-01 4.64405496e-01)	16
0.244102        	mag(U)          	0.00000000e+00	(2.24898417e-01 5.00000000e-01 4.24990750e-01)	0	6.93380495e+00	(-2.05093423e-03 -2.14512807e-01 4.64433924e-01)	16
0.244449        	mag(U)          	0.00000000e+00	(2.24898417e-01 5.00000000e-01 4.24990750e-01)	0	1.91736439e+01	(-2.00736949e-03 -2.15251467e-01 4.58215607e-01)	16
0.244663        	mag(U)          	0.00000000e+00	(2.24898417e-01 5.00000000e-01 4.24990750e-01)	0	1.61242398e+01	(-1.98058433e-03 -2.15701650e-01 4.58235057e-01)	16
0.244885        	mag(U)          	0.00000000e+00	(2.24898417e-01 5.00000000e-01 4.24990750e-01)	0	6.99482940e+00	(-5.21505237e-02 -2.04065886e-01 4.64504943e-01)	16
0.245141        	mag(U)          	0.00000000e+00	(2.24898417e-01 5.00000000e-01 4.24990750e-01)	0	8.59465432e+00	(-1.92059248e-03 -2.16415445e-01 4.58278486e-01)	16
0.245427        	mag(U)          	0.00000000e+00	(2.24898417e-01 5.00000000e-01 4.24990750e-01)	0	2.51792755e+01	(-1.88468380e-03 -2.17156489e-01 4.52054363e-01)	16
0.245603        	mag(U)          	0.00000000e+00	(2.24898417e-01 5.00000000e-01 4.24990750e-01)	0	2.05986332e+01	(-1.86261104e-03 -2.17604111e-01 4.52070255e-01)	16
0.245794        	mag(U)          	0.00000000e+00	(2.24898417e-01 5.00000000e-01 4.24990750e-01)	0	7.96680838e+00	(-3.31801937e-02 -2.12094601e-01 4.58337289e-01)	16
0.246015        	mag(U)          	0.00000000e+00	(2.24898417e-01 5.00000000e-01 4.24990750e-01)	0	1.06232921e+01	(-1.81083602e-03 -2.18352973e-01 4.52107434e-01)	16
0.246264        	mag(U)          	0.00000000e+00	(2.24898417e-01 5.00000000e-01 4.24990750e-01)	0	3.06578797e+01	(9.09913383e-02 -2.07206488e-01 4.39630442e-01)	16
0.246408        	mag(U)          	0.00000000e+00	(2.24898417e-01 5.00000000e-01 4.24990750e-01)	0	2.51553896e+01	(9.10093714e-02 -2.07654918e-01 4.39643331e-01)	16
0.246564        	mag(U)          	0.00000000e+00	(2.24898417e-01 5.00000000e-01 4.24990750e-01)	0	1.01263798e+01	(-3.30834787e-02 -2.14090498e-01 4.52156479e-01)	16
0.246745        	mag(U)          	0.00000000e+00	(2.24898417e-01 5.00000000e-01 4.24990750e-01)	0	1.26689424e+01	(-3.30607818e-02 -2.14529040e-01 4.52172655e-01)	16
0.246948        	mag(U)          	0.00000000e+00	(2.24898417e-01 5.00000000e-01 4.24990750e-01)	0	3.33347593e+01	(-3.30352044e-02 -2.15308341e-01 4.45940822e-01)	16
0.24707         	mag(U)          	0.00000000e+00	(2.24898417e-01 5.00000000e-01 4.24990750e-01)	0	2.78785340e+01	(-3.30198831e-02 -2.15767403e-01 4.45951706e-01)	16
0.247198        	mag(U)          	0.00000000e+00	(2.24898417e-01 5.00000000e-01 4.24990750e-01)	0	1.18046762e+01	(-6.48093050e-02 -2.04436041e-01 4.52212834e-01)	16
0.247345        	mag(U)          	0.00000000e+00	(2.24898417e-01 5.00000000e-01 4.24990750e-01)	0	1.51213318e+01	(-3.29853835e-02 -2.16531907e-01 4.45976171e-01)	16
0.247511        	mag(U)          	0.00000000e+00	(2.24898417e-01 5.00000000e-01 4.24990750e-01)	0	4.10179679e+01	(4.09296289e-02 -2.23091225e-01 4.33491417e-01)	16
0.247615        	mag(U)          	0.00000000e+00	(2.24898417e-01 5.00000000e-01 4.24990750e-01)	0	3.28078947e+01	(4.09426458e-02 -2.23554122e-01 4.33500619e-01)	16
0.247723        	mag(U)          	0.00000000e+00	(2.24898417e-01 5.00000000e-01 4.24990750e-01)	0	1.43536615e+01	(-5.17941980e-02 -2.11972930e-01 4.46009594e-01)	16
0.24785         	mag(U)          	0.00000000e+00	(2.24898417e-01 5.00000000e-01 4.24990750e-01)	0	1.81706665e+01	(-5.17783212e-02 -2.12428912e-01 4.46020794e-01)	16
0.247993        	mag(U)          	0.00000000e+00	(2.24898417e-01 5.00000000e-01 4.24990750e-01)	0	4.72343515e+01	(4.09901686e-02 -2.25134593e-01 4.27284111e-01)	16
0.248077        	mag(U)          	0.00000000e+00	(2.24898417e-01 5.00000000e-01 4.24990750e-01)	0	3.84674247e+01	(4.10006653e-02 -2.25583843e-01 4.27291500e-01)	16
0.248168        	mag(U)          	0.00000000e+00	(2.24898417e-01 5.00000000e-01 4.24990750e-01)	0	1.75262178e+01	(-5.17382910e-02 -2.14015802e-01 4.39798947e-01)	16
0.248276        	mag(U)          	0.00000000e+00	(2.24898417e-01 5.00000000e-01 4.24990750e-01)	0	2.28238217e+01	(-5.17247657e-02 -2.14491764e-01 4.39808451e-01)	16
0.248391        	mag(U)          	0.00000000e+00	(2.24898417e-01 5.00000000e-01 4.24990750e-01)	0	5.43839386e+01	(9.12584242e-02 -2.15256556e-01 4.21069566e-01)	16
0.248464        	mag(U)          	0.00000000e+00	(2.24898417e-01 5.00000000e-01 4.24990750e-01)	0	4.26562757e+01	(9.12676052e-02 -2.15714632e-01 4.21076006e-01)	16
0.248545        	mag(U)          	0.00000000e+00	(2.24898417e-01 5.00000000e-01 4.24990750e-01)	0	1.87287829e+01	(-3.28347004e-02 -2.22174848e-01 4.33582261e-01)	16
0.248636        	mag(U)          	0.00000000e+00	(2.24898417e-01 5.00000000e-01 4.24990750e-01)	0	2.58887673e+01	(-5.16795511e-02 -2.16534839e-01 4.33590126e-01)	16
0.248733        	mag(U)          	0.00000000e+00	(2.24898417e-01 5.00000000e-01 4.24990750e-01)	0	6.31269660e+01	(9.13014435e-02 -2.17291861e-01 4.14849675e-01)	16
0.248794        	mag(U)          	0.00000000e+00	(2.24898417e-01 5.00000000e-01 4.24990750e-01)	0	4.85516581e+01	(9.13090154e-02 -2.17727711e-01 4.14854970e-01)	16
0.248861        	mag(U)          	0.00000000e+00	(2.24898417e-01 5.00000000e-01 4.24990750e-01)	0	2.17671770e+01	(-3.27950246e-02 -2.24180548e-01 4.27359990e-01)	16
0.248937        	mag(U)          	0.00000000e+00	(2.24898417e-01 5.00000000e-01 4.24990750e-01)	0	3.07015641e+01	(9.13269637e-02 -2.18546394e-01 4.14867510e-01)	16
0.249018        	mag(U)          	0.00000000e+00	(2.24898417e-01 5.00000000e-01 4.24990750e-01)	0	6.71425244e+01	(-3.27751776e-02 -2.25389194e-01 4.21123817e-01)	16
0.249073        	mag(U)          	0.00000000e+00	(2.24898417e-01 5.00000000e-01 4.24990750e-01)	0	4.99805896e+01	(-3.27683318e-02 -2.25834203e-01 4.21128591e-01)	16
0.249135        	mag(U)          	0.00000000e+00	(2.24898417e-01 5.00000000e-01 4.24990750e-01)	0	2.41591507e+01	(-5.16168835e-02 -2.20076107e-01 4.27383869e-01)	16
0.249207        	mag(U)          	0.00000000e+00	(2.24898417e-01 5.00000000e-01 4.24990750e-01)	0	3.72870088e+01	(9.13609317e-02 -2.20620378e-01 4.08641169e-01)	16
0.249273        	mag(U)          	0.00000000e+00	(2.24898417e-01 5.00000000e-01 4.24990750e-01)	0	7.90913821e+01	(-5.15994910e-02 -2.21309044e-01 4.21145952e-01)	16
0.249318        	mag(U)          	0.00000000e+00	(2.24898417e-01 5.00000000e-01 4.24990750e-01)	0	5.55684935e+01	(-5.15937865e-02 -2.21724321e-01 4.21149922e-01)	16
0.249371        	mag(U)          	0.00000000e+00	(2.24898417e-01 5.00000000e-01 4.24990750e-01)	0	2.68304505e+01	(-5.15872046e-02 -2.22070508e-01 4.21154501e-01)	16
0.249434        	mag(U)          	0.00000000e+00	(2.24898417e-01 5.00000000e-01 4.24990750e-01)	0	5.04789696e+01	(9.13894578e-02 -2.22653029e-01 4.02410987e-01)	17
0.24949         	mag(U)          	0.00000000e+00	(2.24898417e-01 5.00000000e-01 4.24990750e-01)	0	9.79182969e+01	(9.13965666e-02 -2.23362535e-01 4.02415927e-01)	17
0.24953         	mag(U)          	0.00000000e+00	(2.24898417e-01 5.00000000e-01 4.24990750e-01)	0	5.88007926e+01	(9.14014881e-02 -2.23766958e-01 4.02419345e-01)	17
0.249572        	mag(U)          	0.00000000e+00	(2.24898417e-01 5.00000000e-01 4.24990750e-01)	0	2.98368874e+01	(-1.38439084e-03 1.69016182e-01 7.04479090e-01)	8
0.24962         	mag(U)          	0.00000000e+00	(2.24898417e-01 5.00000000e-01 4.24990750e-01)	0	6.47021538e+01	(-3.26995880e-02 -2.30735266e-01 4.08676348e-01)	16
0.249662        	mag(U)          	0.00000000e+00	(2.24898417e-01 5.00000000e-01 4.24990750e-01)	0	1.10169416e+02	(9.14181685e-02 -2.25230281e-01 3.96180893e-01)	17
0.249696        	mag(U)          	0.00000000e+00	(2.24898417e-01 5.00000000e-01 4.24990750e-01)	0	5.40650583e+01	(-3.26900433e-02 -2.31706918e-01 4.08682969e-01)	16
0.249734        	mag(U)          	0.00000000e+00	(2.24898417e-01 5.00000000e-01 4.24990750e-01)	0	3.22143228e+01	(-1.36411120e-03 1.67198521e-01 7.04493159e-01)	8
0.249778        	mag(U)          	0.00000000e+00	(2.24898417e-01 5.00000000e-01 4.24990750e-01)	0	9.03900386e+01	(9.14327506e-02 -2.26519552e-01 3.96191002e-01)	17
0.249815        	mag(U)          	0.00000000e+00	(2.24898417e-01 5.00000000e-01 4.24990750e-01)	0	1.31089787e+02	(-3.26750197e-02 -2.33258947e-01 4.02443350e-01)	17
0.249842        	mag(U)          	0.00000000e+00	(2.24898417e-01 5.00000000e-01 4.24990750e-01)	0	6.20953362e+01	(-5.15280159e-02 -2.27468822e-01 4.08695514e-01)	16
0.249873        	mag(U)          	0.00000000e+00	(2.24898417e-01 5.00000000e-01 4.24990750e-01)	0	4.14242108e+01	(-5.15240391e-02 -2.27801006e-01 4.08698267e-01)	16
0.249916        	mag(U)          	0.00000000e+00	(2.24898417e-01 5.00000000e-01 4.24990750e-01)	0	1.41691810e+02	(9.14500281e-02 -2.28587461e-01 3.89952936e-01)	17
0.249944        	mag(U)          	0.00000000e+00	(2.24898417e-01 5.00000000e-01 4.24990750e-01)	0	1.80046450e+02	(-3.26588469e-02 -2.35327717e-01 3.96204515e-01)	17
0.249962        	mag(U)          	0.00000000e+00	(2.24898417e-01 5.00000000e-01 4.24990750e-01)	0	8.48618509e+01	(9.14559202e-02 -2.29522287e-01 3.89957012e-01)	17
0.249981        	mag(U)          	0.00000000e+00	(2.24898417e-01 5.00000000e-01 4.24990750e-01)	0	6.55690222e+01	(-1.31260013e-03 -2.41730080e-01 3.96207994e-01)	17
0.25            	mag(U)          	0.00000000e+00	(2.24898417e-01 5.00000000e-01 4.24990750e-01)	0	1.53881123e+02	(9.14606774e-02 -2.30202211e-01 3.83710272e-01)	17
0.250021        	mag(U)          	0.00000000e+00	(2.24898417e-01 5.00000000e-01 4.24990750e-01)	0	1.63180880e+02	(9.14633095e-02 -2.30679231e-01 3.83712092e-01)	17
0.250042        	mag(U)          	0.00000000e+00	(2.24898417e-01 5.00000000e-01 4.24990750e-01)	0	5.15516992e+01	(-1.32538231e-03 1.62156081e-01 7.04519969e-01)	8
0.250068        	mag(U)          	0.00000000e+00	(2.24898417e-01 5.00000000e-01 4.24990750e-01)	0	5.31318314e+01	(-1.32215261e-03 1.61805135e-01 7.04522201e-01)	8
0.250098        	mag(U)          	0.00000000e+00	(2.24898417e-01 5.00000000e-01 4.24990750e-01)	0	2.41619779e+02	(-3.26394429e-02 -2.38255583e-01 3.89967899e-01)	17
0.250114        	mag(U)          	0.00000000e+00	(2.24898417e-01 5.00000000e-01 4.24990750e-01)	0	2.47163294e+02	(-3.26373845e-02 -2.38761790e-01 3.89969321e-01)	17
0.25013         	mag(U)          	0.00000000e+00	(2.24898417e-01 5.00000000e-01 4.24990750e-01)	0	9.52686607e+01	(9.14769530e-02 -2.32947915e-01 3.83721520e-01)	17
0.250148        	mag(U)          	0.00000000e+00	(2.24898417e-01 5.00000000e-01 4.24990750e-01)	0	9.20675099e+01	(9.14792436e-02 -2.33306112e-01 3.83723102e-01)	17
0.250169        	mag(U)          	0.00000000e+00	(2.24898417e-01 5.00000000e-01 4.24990750e-01)	0	2.91747124e+02	(9.14819138e-02 -2.34059868e-01 3.77474915e-01)	17
0.250182        	mag(U)          	0.00000000e+00	(2.24898417e-01 5.00000000e-01 4.24990750e-01)	0	2.96944179e+02	(9.14835253e-02 -2.34562484e-01 3.77476028e-01)	17
0.250194        	mag(U)          	0.00000000e+00	(2.24898417e-01 5.00000000e-01 4.24990750e-01)	0	1.22082565e+02	(-1.28583365e-03 -2.46797464e-01 3.83726427e-01)	17
0.250208        	mag(U)          	0.00000000e+00	(2.24898417e-01 5.00000000e-01 4.24990750e-01)	0	1.18716611e+02	(-1.28403631e-03 -2.47160481e-01 3.83727667e-01)	17
0.250224        	mag(U)          	0.00000000e+00	(2.24898417e-01 5.00000000e-01 4.24990750e-01)	0	3.67075447e+02	(6.08191760e-02 -2.43446605e-01 3.71229520e-01)	17
0.250235        	mag(U)          	0.00000000e+00	(2.24898417e-01 5.00000000e-01 4.24990750e-01)	0	3.83520765e+02	(9.14902140e-02 -2.36470226e-01 3.71230613e-01)	17
0.250244        	mag(U)          	0.00000000e+00	(2.24898417e-01 5.00000000e-01 4.24990750e-01)	0	1.56050004e+02	(-1.27945505e-03 -2.48707364e-01 3.77480798e-01)	17
0.250256        	mag(U)          	0.00000000e+00	(2.24898417e-01 5.00000000e-01 4.24990750e-01)	0	1.55079028e+02	(-1.27802744e-03 -2.49074302e-01 3.77481782e-01)	17
0.250269        	mag(U)          	0.00000000e+00	(2.24898417e-01 5.00000000e-01 4.24990750e-01)	0	4.72106377e+02	(-1.27635426e-03 -2.49817356e-01 3.71232906e-01)	17
0.250277        	mag(U)          	0.00000000e+00	(2.24898417e-01 5.00000000e-01 4.24990750e-01)	0	4.72819152e+02	(6.08257715e-02 -2.45853372e-01 3.64984040e-01)	17
0.250284        	mag(U)          	0.00000000e+00	(2.24898417e-01 5.00000000e-01 4.24990750e-01)	0	2.00080684e+02	(-3.26159513e-02 -2.44790075e-01 3.77484052e-01)	17
0.250293        	mag(U)          	0.00000000e+00	(2.24898417e-01 5.00000000e-01 4.24990750e-01)	0	1.98949793e+02	(-3.26148101e-02 -2.45160478e-01 3.77484839e-01)	17
0.250304        	mag(U)          	0.00000000e+00	(2.24898417e-01 5.00000000e-01 4.24990750e-01)	0	6.37241417e+02	(-3.26134668e-02 -2.45902207e-01 3.71235735e-01)	17
0.25031         	mag(U)          	0.00000000e+00	(2.24898417e-01 5.00000000e-01 4.24990750e-01)	0	6.16992158e+02	(-3.26126570e-02 -2.46395523e-01 3.71236293e-01)	17
0.250316        	mag(U)          	0.00000000e+00	(2.24898417e-01 5.00000000e-01 4.24990750e-01)	0	8.17786998e+02	(-5.81287798e-02 9.97139009e-02 5.70287023e-01)	7
0.250321        	mag(U)          	0.00000000e+00	(2.24898417e-01 5.00000000e-01 4.24990750e-01)	0	2.29534304e+03	(-5.94396499e-02 9.68152128e-02 5.68523411e-01)	7
0.250322        	mag(U)          	0.00000000e+00	(2.24898417e-01 5.00000000e-01 4.24990750e-01)	0	4.52106455e+03	(-5.24970967e-02 1.01335083e-01 5.69365386e-01)	7
0.250323        	mag(U)          	0.00000000e+00	(2.24898417e-01 5.00000000e-01 4.24990750e-01)	0	9.58819907e+03	(-5.24969871e-02 1.01301178e-01 5.69365425e-01)	7
0.250324        	mag(U)          	0.00000000e+00	(2.24898417e-01 5.00000000e-01 4.24990750e-01)	0	2.02963401e+04	(-5.24969373e-02 1.01287046e-01 5.69365443e-01)	7
0.250324        	mag(U)          	0.00000000e+00	(2.24898417e-01 5.00000000e-01 4.24990750e-01)	0	4.27887916e+04	(-5.24969135e-02 1.01280342e-01 5.69365452e-01)	7
0.250324        	mag(U)          	0.00000000e+00	(2.24898417e-01 5.00000000e-01 4.24990750e-01)	0	8.36595384e+04	(-5.24969018e-02 1.01276895e-01 5.69365457e-01)	7
0.250324        	mag(U)          	0.00000000e+00	(2.24898417e-01 5.00000000e-01 4.24990750e-01)	0	1.63971665e+05	(-5.24968958e-02 1.01275127e-01 5.69365459e-01)	7
0.250324        	mag(U)          	0.00000000e+00	(2.24898417e-01 5.00000000e-01 4.24990750e-01)	0	2.92730525e+05	(-5.24968928e-02 1.01274254e-01 5.69365460e-01)	7
0.250324        	mag(U)          	0.00000000e+00	(2.24898417e-01 5.00000000e-01 4.24990750e-01)	0	6.18444638e+05	(-3.98302188e-02 1.07018789e-01 5.69642655e-01)	7
0.250324        	mag(U)          	0.00000000e+00	(2.24898417e-01 5.00000000e-01 4.24990750e-01)	0	1.30157510e+06	(-3.98302194e-02 1.07018560e-01 5.69642656e-01)	7
0.250324        	mag(U)          	0.00000000e+00	(2.24898417e-01 5.00000000e-01 4.24990750e-01)	0	2.62196904e+06	(-3.98302197e-02 1.07018454e-01 5.69642656e-01)	7
0.250324        	mag(U)          	0.00000000e+00	(2.24898417e-01 5.00000000e-01 4.24990750e-01)	0	5.32332494e+06	(-3.98302198e-02 1.07018400e-01 5.69642656e-01)	7
0.250324        	mag(U)          	0.00000000e+00	(2.24898417e-01 5.00000000e-01 4.24990750e-01)	0	1.05368391e+07	(-3.98302198e-02 1.07018375e-01 5.69642656e-01)	7
0.250324        	mag(U)          	0.00000000e+00	(2.24898417e-01 5.00000000e-01 4.24990750e-01)	0	1.97070849e+07	(-3.98302199e-02 1.07018360e-01 5.69642656e-01)	7
0.250324        	mag(U)          	0.00000000e+00	(2.24898417e-01 5.00000000e-01 4.24990750e-01)	0	4.09013339e+07	(-3.40639088e-02 1.08390308e-01 5.68948291e-01)	7
0.250324        	mag(U)          	0.00000000e+00	(2.24898417e-01 5.00000000e-01 4.24990750e-01)	0	8.49388610e+07	(-3.40639088e-02 1.08390300e-01 5.68948291e-01)	7
0.250324        	mag(U)          	0.00000000e+00	(2.24898417e-01 5.00000000e-01 4.24990750e-01)	0	1.66186717e+08	(-5.24987721e-02 1.01276370e-01 5.81869016e-01)	7
0.250324        	mag(U)          	0.00000000e+00	(2.24898417e-01 5.00000000e-01 4.24990750e-01)	0	3.39453261e+08	(-5.24987721e-02 1.01276354e-01 5.81869016e-01)	7
0.250324        	mag(U)          	0.00000000e+00	(2.24898417e-01 5.00000000e-01 4.24990750e-01)	0	6.60336679e+08	(-3.98307472e-02 1.07019689e-01 5.75894161e-01)	7
0.250324        	mag(U)          	0.00000000e+00	(2.24898417e-01 5.00000000e-01 4.24990750e-01)	0	1.34484529e+09	(-3.98307472e-02 1.07019676e-01 5.75894161e-01)	7
0.250324        	mag(U)          	0.00000000e+00	(2.24898417e-01 5.00000000e-01 4.24990750e-01)	0	2.48466552e+09	(-5.94435358e-02 9.67010677e-02 5.87279452e-01)	7
0.250324        	mag(U)          	0.00000000e+00	(2.24898417e-01 5.00000000e-01 4.24990750e-01)	0	5.36793196e+09	(-5.81269515e-02 9.94402030e-02 4.26534928e-01)	14
0.250324        	mag(U)          	0.00000000e+00	(2.24898417e-01 5.00000000e-01 4.24990750e-01)	0	1.24075920e+10	(-5.24943763e-02 1.01270640e-01 4.19362219e-01)	14
0.250324        	mag(U)          	0.00000000e+00	(2.24898417e-01 5.00000000e-01 4.24990750e-01)	0	2.46895648e+10	(-5.94364767e-02 9.66942883e-02 3.87270292e-01)	14
0.250324        	mag(U)          	0.00000000e+00	(2.24898417e-01 5.00000000e-01 4.24990750e-01)	0	5.27768068e+10	(-5.24943763e-02 1.01270602e-01 4.19362219e-01)	14
0.250324        	mag(U)          	0.00000000e+00	(2.24898417e-01 5.00000000e-01 4.24990750e-01)	0	1.19921146e+11	(-5.24943762e-02 1.01270580e-01 4.19362219e-01)	14
0.250324        	mag(U)          	0.00000000e+00	(2.24898417e-01 5.00000000e-01 4.24990750e-01)	0	2.57356294e+11	(-5.24943762e-02 1.01270563e-01 4.19362219e-01)	14
0.250324        	mag(U)          	0.00000000e+00	(2.24898417e-01 5.00000000e-01 4.24990750e-01)	0	5.50185764e+11	(-5.24943762e-02 1.01270546e-01 4.19362219e-01)	14
0.250324        	mag(U)          	0.00000000e+00	(2.24898417e-01 5.00000000e-01 4.24990750e-01)	0	1.14757593e+12	(-5.24943762e-02 1.01270537e-01 4.19362219e-01)	14
0.250324        	mag(U)          	0.00000000e+00	(2.24898417e-01 5.00000000e-01 4.24990750e-01)	0	2.35248217e+12	(-5.24943761e-02 1.01270518e-01 4.19362219e-01)	14
0.250324        	mag(U)          	0.00000000e+00	(2.24898417e-01 5.00000000e-01 4.24990750e-01)	0	5.35737269e+12	(-5.24943562e-02 1.01270542e-01 4.13112219e-01)	14
0.250324        	mag(U)          	0.00000000e+00	(2.24898417e-01 5.00000000e-01 4.24990750e-01)	0	9.79677573e+12	(-5.24943761e-02 1.01270477e-01 4.19362219e-01)	14
0.250324        	mag(U)          	0.00000000e+00	(2.24898417e-01 5.00000000e-01 4.24990750e-01)	0	2.30493872e+13	(-5.24943562e-02 1.01270514e-01 4.13112219e-01)	14
0.250324        	mag(U)          	0.00000000e+00	(2.24898417e-01 5.00000000e-01 4.24990750e-01)	0	4.43592942e+13	(-4.54850663e-02 1.05560185e-01 4.14106050e-01)	14
0.250324        	mag(U)          	0.00000000e+00	(2.24898417e-01 5.00000000e-01 4.24990750e-01)	0	1.07351118e+14	(-5.24943562e-02 1.01270496e-01 4.13112219e-01)	14
0.250324        	mag(U)          	0.00000000e+00	(2.24898417e-01 5.00000000e-01 4.24990750e-01)	0	2.10404447e+14	(-5.24976381e-02 1.01274393e-01 5.75617006e-01)	7
0.250324        	mag(U)          	0.00000000e+00	(2.24898417e-01 5.00000000e-01 4.24990750e-01)	0	4.74558488e+14	(-5.24976381e-02 1.01274376e-01 5.75617006e-01)	7
0.250324        	mag(U)          	0.00000000e+00	(2.24898417e-01 5.00000000e-01 4.24990750e-01)	0	1.01839735e+15	(-5.24976380e-02 1.01274364e-01 5.75617006e-01)	7
0.250324        	mag(U)          	0.00000000e+00	(2.24898417e-01 5.00000000e-01 4.24990750e-01)	0	2.22872243e+15	(-5.24976380e-02 1.01274358e-01 5.75617006e-01)	7
0.250324        	mag(U)          	0.00000000e+00	(2.24898417e-01 5.00000000e-01 4.24990750e-01)	0	4.79730345e+15	(-5.24976380e-02 1.01274339e-01 5.75617006e-01)	7
0.250324        	mag(U)          	0.00000000e+00	(2.24898417e-01 5.00000000e-01 4.24990750e-01)	0	1.01846429e+16	(-5.24976380e-02 1.01274329e-01 5.75617006e-01)	7
0.250324        	mag(U)          	0.00000000e+00	(2.24898417e-01 5.00000000e-01 4.24990750e-01)	0	2.15217510e+16	(-5.24976380e-02 1.01274309e-01 5.75617006e-01)	7
0.250324        	mag(U)          	0.00000000e+00	(2.24898417e-01 5.00000000e-01 4.24990750e-01)	0	4.59304270e+16	(-3.98302218e-02 1.07017943e-01 5.69642657e-01)	7
0.250324        	mag(U)          	0.00000000e+00	(2.24898417e-01 5.00000000e-01 4.24990750e-01)	0	9.79715770e+16	(-3.98302219e-02 1.07017918e-01 5.69642657e-01)	7
0.250324        	mag(U)          	0.00000000e+00	(2.24898417e-01 5.00000000e-01 4.24990750e-01)	0	2.11774174e+17	(-3.98302220e-02 1.07017892e-01 5.69642657e-01)	7
0.250324        	mag(U)          	0.00000000e+00	(2.24898417e-01 5.00000000e-01 4.24990750e-01)	0	4.53132555e+17	(-3.98302221e-02 1.07017869e-01 5.69642657e-01)	7
0.250324        	mag(U)          	0.00000000e+00	(2.24898417e-01 5.00000000e-01 4.24990750e-01)	0	9.68167063e+17	(-3.98302221e-02 1.07017858e-01 5.69642657e-01)	7
0.250324        	mag(U)          	0.00000000e+00	(2.24898417e-01 5.00000000e-01 4.24990750e-01)	0	2.05568654e+18	(-3.98302222e-02 1.07017840e-01 5.69642657e-01)	7
0.250324        	mag(U)          	0.00000000e+00	(2.24898417e-01 5.00000000e-01 4.24990750e-01)	0	4.41365102e+18	(-4.84791235e-02 1.00512830e-01 5.60410416e-01)	7
0.250324        	mag(U)          	0.00000000e+00	(2.24898417e-01 5.00000000e-01 4.24990750e-01)	0	9.28587894e+18	(-3.98302224e-02 1.07017798e-01 5.69642657e-01)	7
0.250324        	mag(U)          	0.00000000e+00	(2.24898417e-01 5.00000000e-01 4.24990750e-01)	0	2.07406022e+19	(-4.84791238e-02 1.00512786e-01 5.60410416e-01)	7
0.250324        	mag(U)          	0.00000000e+00	(2.24898417e-01 5.00000000e-01 4.24990750e-01)	0	4.14338620e+19	(-4.84791239e-02 1.00512764e-01 5.60410416e-01)	7
0.250324        	mag(U)          	0.00000000e+00	(2.24898417e-01 5.00000000e-01 4.24990750e-01)	0	9.85322833e+19	(-4.84791240e-02 1.00512745e-01 5.60410416e-01)	7
0.250324        	mag(U)          	0.00000000e+00	(2.24898417e-01 5.00000000e-01 4.24990750e-01)	0	1.98394528e+20	(-4.84791241e-02 1.00512726e-01 5.60410416e-01)	7
0.250324        	mag(U)          	0.00000000e+00	(2.24898417e-01 5.00000000e-01 4.24990750e-01)	0	4.20861400e+20	(-4.84791242e-02 1.00512715e-01 5.60410416e-01)	7
0.250324        	mag(U)          	0.00000000e+00	(2.24898417e-01 5.00000000e-01 4.24990750e-01)	0	9.25634840e+20	(-4.84791242e-02 1.00512710e-01 5.60410416e-01)	7
0.250324        	mag(U)          	0.00000000e+00	(2.24898417e-01 5.00000000e-01 4.24990750e-01)	0	1.95932430e+21	(-4.84791243e-02 1.00512698e-01 5.60410416e-01)	7
0.250324        	mag(U)          	0.00000000e+00	(2.24898417e-01 5.00000000e-01 4.24990750e-01)	0	4.18574159e+21	(-4.84791244e-02 1.00512679e-01 5.60410416e-01)	7
0.250324        	mag(U)          	0.00000000e+00	(2.24898417e-01 5.00000000e-01 4.24990750e-01)	0	8.84241137e+21	(-4.84791245e-02 1.00512664e-01 5.60410416e-01)	7
0.250324        	mag(U)          	0.00000000e+00	(2.24898417e-01 5.00000000e-01 4.24990750e-01)	0	1.76044361e+22	(-5.24976375e-02 1.01273968e-01 5.75617006e-01)	7
0.250324        	mag(U)          	0.00000000e+00	(2.24898417e-01 5.00000000e-01 4.24990750e-01)	0	3.97914673e+22	(-4.84791246e-02 1.00512652e-01 5.60410416e-01)	7
0.250324        	mag(U)          	0.00000000e+00	(2.24898417e-01 5.00000000e-01 4.24990750e-01)	0	8.24050950e+22	(-5.24943207e-02 1.01270084e-01 4.00612304e-01)	14
0.250324        	mag(U)          	0.00000000e+00	(2.24898417e-01 5.00000000e-01 4.24990750e-01)	0	1.83398973e+23	(-4.84791247e-02 1.00512636e-01 5.60410416e-01)	7
0.250324        	mag(U)          	0.00000000e+00	(2.24898417e-01 5.00000000e-01 4.24990750e-01)	0	3.61374780e+23	(-5.24943206e-02 1.01270062e-01 4.00612304e-01)	14
0.250324        	mag(U)          	0.00000000e+00	(2.24898417e-01 5.00000000e-01 4.24990750e-01)	0	8.27991880e+23	(-1.02364748e-01 6.28331229e-02 5.44708777e-01)	7
0.250324        	mag(U)          	0.00000000e+00	(2.24898417e-01 5.00000000e-01 4.24990750e-01)	0	1.88530053e+24	(-1.02364748e-01 6.28331084e-02 5.44708777e-01)	7
0.250324        	mag(U)          	0.00000000e+00	(2.24898417e-01 5.00000000e-01 4.24990750e-01)	0	4.22053232e+24	(-1.02364748e-01 6.28330983e-02 5.44708777e-01)	7
0.250324        	mag(U)          	0.00000000e+00	(2.24898417e-01 5.00000000e-01 4.24990750e-01)	0	9.71830435e+24	(-1.02364748e-01 6.28330902e-02 5.44708777e-01)	7