# Force       
# CofR        : (0.000000e+00 0.000000e+00 0.000000e+00)
#
# Time        	total_x total_y total_z	pressure_x pressure_y pressure_z	viscous_x viscous_y viscous_z
0.2125         2.529534e-01 9.544848e-01 1.896374e+00 2.526880e-01 9.543093e-01 1.895893e+00 2.653840e-04 1.754135e-04 4.812997e-04
0.214375       6.127407e-02 -2.367315e+00 2.980101e-01 6.100717e-02 -2.367318e+00 2.975460e-01 2.669010e-04 3.710455e-06 4.640613e-04
0.21625        6.357492e-02 -8.428142e-01 3.359735e-01 6.330501e-02 -8.427579e-01 3.355202e-01 2.699059e-04 -5.621536e-05 4.532859e-04
0.218125       7.799994e-02 3.047257e+00 4.085244e-01 7.772745e-02 3.047096e+00 4.080688e-01 2.724882e-04 1.611548e-04 4.556107e-04
0.22           7.530149e-02 7.133016e-01 3.776958e-01 7.502793e-02 7.130920e-01 3.772434e-01 2.735570e-04 2.095517e-04 4.523852e-04
0.221667       4.975905e-02 -4.025457e+00 2.307756e-01 4.948475e-02 -4.025409e+00 2.303494e-01 2.742984e-04 -4.788220e-05 4.261144e-04
0.22375        6.849671e-02 2.131268e-01 3.573813e-01 6.821840e-02 2.131570e-01 3.569628e-01 2.783128e-04 -3.016173e-05 4.184865e-04
0.225833       1.039132e-01 4.712261e+00 5.296980e-01 1.036326e-01 4.711919e+00 5.292532e-01 2.805583e-04 3.425934e-04 4.447399e-04
0.226875       9.855515e-02 1.918157e+00 4.582384e-01 9.827544e-02 1.917741e+00 4.577876e-01 2.797075e-04 4.154991e-04 4.507465e-04
0.227917       1.207458e-03 -7.408928e+00 -1.966765e-02 9.291499e-04 -7.409047e+00 -2.007721e-02 2.783080e-04 1.186185e-04 4.095633e-04
0.228958       6.991729e-02 -6.479565e-01 3.239080e-01 6.963744e-02 -6.480483e-01 3.235056e-01 2.798459e-04 9.180272e-05 4.024080e-04
0.23           1.807471e-01 8.946039e+00 9.097190e-01 1.804641e-01 8.945593e+00 9.092657e-01 2.829895e-04 4.458738e-04 4.532775e-04
0.230833       1.018430e-01 1.357243e+00 4.862315e-01 1.015604e-01 1.356757e+00 4.857711e-01 2.826525e-04 4.859860e-04 4.603594e-04
0.231597       -9.252421e-02 -1.241975e+01 -5.290809e-01 -9.280338e-02 -1.241987e+01 -5.294739e-01 2.791753e-04 1.219468e-04 3.930023e-04
0.232531       1.064883e-01 1.839783e+00 5.066739e-01 1.062071e-01 1.839597e+00 5.062709e-01 2.812018e-04 1.859567e-04 4.029603e-04
0.233598       3.205791e-01 1.344060e+01 1.555529e+00 3.202915e-01 1.343987e+01 1.555008e+00 2.876253e-04 7.293779e-04 5.205504e-04
0.234131       1.396181e-01 4.345387e+00 8.691344e-01 1.393303e-01 4.344574e+00 8.685899e-01 2.878339e-04 8.128332e-04 5.445516e-04
0.23462        -3.348426e-01 -2.197469e+01 -1.802331e+00 -3.351234e-01 -2.197509e+01 -1.802773e+00 2.808032e-04 3.993677e-04 4.419277e-04
0.235218       1.606915e-01 2.403523e+00 6.562020e-01 1.604093e-01 2.403071e+00 6.557453e-01 2.821495e-04 4.515489e-04 4.566487e-04
0.235901       6.528369e-01 2.334252e+01 3.198377e+00 6.525432e-01 2.334146e+01 3.197738e+00 2.936241e-04 1.055786e-03 6.388045e-04
0.236274       2.991542e-01 7.597111e+00 1.537747e+00 2.988590e-01 7.595953e+00 1.537068e+00 2.951849e-04 1.158027e-03 6.791582e-04
0.236613       -8.111830e-01 -3.767481e+01 -4.425429e+00 -8.114670e-01 -3.767548e+01 -4.425952e+00 2.840021e-04 6.670521e-04 5.231071e-04
0.237036       2.597909e-01 4.227134e+00 1.050077e+00 2.595050e-01 4.226402e+00 1.049527e+00 2.858580e-04 7.318664e-04 5.492785e-04
0.23753        1.297362e+00 3.961458e+01 6.433340e+00 1.297057e+00 3.961311e+01 6.432507e+00 3.047066e-04 1.472554e-03 8.330603e-04
0.237804       5.581119e-01 1.254057e+01 2.746299e+00 5.578040e-01 1.253898e+01 2.745404e+00 3.079266e-04 1.596606e-03 8.941132e-04
0.238079       -1.695802e+00 -6.084896e+01 -9.190107e+00 -1.696092e+00 -6.084992e+01 -9.190750e+00 2.899042e-04 9.542828e-04 6.427267e-04
0.238399       3.303303e-01 3.782117e+00 1.204993e+00 3.300387e-01 3.781121e+00 1.204326e+00 2.915844e-04 9.956625e-04 6.670968e-04
0.238799       2.446706e+00 6.415701e+01 1.222470e+01 2.446384e+00 6.415504e+01 1.222358e+01 3.226122e-04 1.966610e-03 1.117367e-03
0.238999       1.478966e+00 3.367376e+01 7.414843e+00 1.478635e+00 3.367154e+01 7.413592e+00 3.309912e-04 2.213881e-03 1.250407e-03
0.2392         -3.614125e+00 -1.047909e+02 -1.932327e+01 -3.614429e+00 -1.047923e+02 -1.932414e+01 3.039340e-04 1.407008e-03 8.732697e-04
0.239466       3.530699e-01 1.140379e+00 1.000917e+00 3.527649e-01 1.138968e+00 1.000029e+00 3.049983e-04 1.411404e-03 8.880025e-04
0.239733       5.077775e+00 1.173533e+02 2.559600e+01 5.077425e+00 1.173507e+02 2.559447e+01 3.498809e-04 2.594195e-03 1.527437e-03
0.239867       3.058769e+00 6.441006e+01 1.548867e+01 3.058406e+00 6.440715e+01 1.548695e+01 3.624763e-04 2.909658e-03 1.718045e-03
0.24           -7.678070e+00 -1.894827e+02 -4.072157e+01 -7.678395e+00 -1.894846e+02 -4.072277e+01 3.247115e-04 1.937137e-03 1.193643e-03
0.240159       -1.102688e-01 -1.305672e+01 -1.902433e+00 -1.105910e-01 -1.305857e+01 -1.903591e+00 3.222537e-04 1.849385e-03 1.157883e-03
0.240341       9.920262e+00 2.083600e+02 5.029665e+01 9.919879e+00 2.083567e+02 5.029462e+01 3.834844e-04 3.283150e-03 2.022678e-03
0.240472       3.672687e+00 6.635549e+01 1.825178e+01 3.672289e+00 6.635189e+01 1.824954e+01 3.981209e-04 3.598270e-03 2.242169e-03
0.240594       -1.402348e+01 -3.054979e+02 -7.406435e+01 -1.402381e+01 -3.055001e+02 -7.406572e+01 3.358169e-04 2.166558e-03 1.372970e-03
0.240738       1.184070e+00 1.147084e+01 4.196274e+00 1.183730e+00 1.146862e+01 4.194850e+00 3.396716e-04 2.218872e-03 1.424194e-03
0.240904       1.760613e+01 3.360103e+02 8.978925e+01 1.760569e+01 3.360060e+02 8.978642e+01 4.397027e-04 4.317452e-03 2.828843e-03
0.241005       6.154963e+00 1.029435e+02 3.084735e+01 6.154503e+00 1.029388e+02 3.084423e+01 4.592000e-04 4.694057e-03 3.117613e-03
0.2411         -2.628868e+01 -5.118931e+02 -1.383701e+02 -2.628905e+01 -5.118960e+02 -1.383719e+02 3.691643e-04 2.836035e-03 1.862007e-03
0.241212       2.885744e+00 3.740282e+01 1.231465e+01 2.885366e+00 3.739983e+01 1.231266e+01 3.784358e-04 2.981571e-03 1.988107e-03
0.241341       3.183464e+01 5.553522e+02 1.628786e+02 3.183412e+01 5.553465e+02 1.628747e+02 5.205448e-04 5.689195e-03 3.981168e-03
0.241419       1.002603e+01 1.539060e+02 5.002566e+01 1.002548e+01 1.538999e+02 5.002132e+01 5.452212e-04 6.120437e-03 4.342586e-03
0.241493       -4.752494e+01 -8.416618e+02 -2.500592e+02 -4.752536e+01 -8.416655e+02 -2.500617e+02 4.183034e-04 3.735591e-03 2.572054e-03
0.241581       5.846365e+00 7.772493e+01 2.652980e+01 5.845931e+00 7.772096e+01 2.652701e+01 4.338383e-04 3.975036e-03 2.787404e-03
0.241681       5.669433e+01 9.134657e+02 2.908164e+02 5.669369e+01 9.134583e+02 2.908109e+02 6.307993e-04 7.425411e-03 5.547833e-03
0.241742       1.580493e+01 2.238741e+02 7.832287e+01 1.580427e+01 2.238662e+02 7.831688e+01 6.610613e-04 7.909392e-03 5.987043e-03
0.2418         -8.379603e+01 -1.367396e+03 -4.412075e+02 -8.379652e+01 -1.367401e+03 -4.412111e+02 4.852526e-04 4.865790e-03 3.532654e-03
0.241869       1.156004e+01 1.522187e+02 5.445233e+01 1.155953e+01 1.522135e+02 5.444844e+01 5.103759e-04 5.238329e-03 3.882775e-03
0.241947       9.896864e+01 1.487688e+03 5.090412e+02 9.896786e+01 1.487678e+03 5.090336e+02 7.792599e-04 9.617197e-03 7.651164e-03
0.241995       2.366786e+01 3.118836e+02 1.164770e+02 2.366704e+01 3.118734e+02 1.164688e+02 8.144231e-04 1.014005e-02 8.160735e-03
0.242041       -1.441923e+02 -2.191430e+03 -7.599697e+02 -1.441928e+02 -2.191436e+03 -7.599745e+02 5.738278e-04 6.262952e-03 4.798403e-03
0.242096       2.252549e+01 2.897786e+02 1.086653e+02 2.252488e+01 2.897717e+02 1.086600e+02 6.137716e-04 6.832919e-03 5.357349e-03
0.242158       1.684488e+02 2.383580e+03 8.693326e+02 1.684478e+02 2.383568e+03 8.693222e+02 9.788354e-04 1.241285e-02 1.047783e-02
0.242196       3.539587e+01 4.398043e+02 1.733679e+02 3.539485e+01 4.397913e+02 1.733569e+02 1.019981e-03 1.298913e-02 1.107351e-02
0.242233       -2.440195e+02 -3.486685e+03 -1.288428e+03 -2.440202e+02 -3.486693e+03 -1.288435e+03 6.959685e-04 8.086746e-03 6.539962e-03
0.242276       4.116464e+01 5.128797e+02 2.016543e+02 4.116388e+01 5.128708e+02 2.016470e+02 7.545074e-04 8.886969e-03 7.361110e-03
0.242325       2.833444e+02 3.804630e+03 1.466993e+03 2.833432e+02 3.804614e+03 1.466979e+03 1.237499e-03 1.587474e-02 1.414475e-02
0.242355       4.867370e+01 5.702564e+02 2.360811e+02 4.867242e+01 5.702400e+02 2.360663e+02 1.281325e-03 1.645650e-02 1.478172e-02
0.242385       -4.029546e+02 -5.460840e+03 -2.132594e+03 -4.029554e+02 -5.460850e+03 -2.132603e+03 8.489209e-04 1.025931e-02 8.719806e-03
0.24242        7.528178e+01 9.115688e+02 3.736590e+02 7.528084e+01 9.115573e+02 3.736490e+02 9.364538e-04 1.141528e-02 9.951732e-03
0.242459       4.650677e+02 5.965247e+03 2.414667e+03 4.650661e+02 5.965227e+03 2.414648e+03 1.577083e-03 2.025376e-02 1.896254e-02
0.242483       6.653944e+01 7.416322e+02 3.192757e+02 6.653782e+01 7.416114e+02 3.192561e+02 1.623743e-03 2.084662e-02 1.964360e-02
0.242508       -6.571256e+02 -8.499861e+03 -3.484957e+03 -6.571267e+02 -8.499874e+03 -3.484969e+03 1.054541e-03 1.306831e-02 1.164891e-02
0.242536       1.313761e+02 1.555476e+03 6.671318e+02 1.313749e+02 1.555462e+03 6.671183e+02 1.184219e-03 1.469184e-02 1.347062e-02
0.242568       7.479311e+02 9.226828e+03 3.923139e+03 7.479291e+02 9.226802e+03 3.923114e+03 2.035956e-03 2.581944e-02 2.546588e-02
0.242587       8.341994e+01 9.194212e+02 4.273344e+02 8.341784e+01 9.193947e+02 4.273081e+02 2.096007e-03 2.648291e-02 2.632701e-02
0.242606       -1.059440e+03 -1.312533e+04 -5.612867e+03 -1.059442e+03 -1.312535e+04 -5.612883e+03 1.362339e-03 1.685037e-02 1.599733e-02
0.242629       2.226316e+02 2.571574e+03 1.139442e+03 2.226301e+02 2.571555e+03 1.139424e+03 1.540309e-03 1.902316e-02 1.850092e-02
0.242654       1.195275e+03 1.425416e+04 6.285348e+03 1.195272e+03 1.425412e+04 6.285314e+03 2.635146e-03 3.283278e-02 3.393071e-02
0.24267        1.052068e+02 1.124487e+03 5.356582e+02 1.052041e+02 1.124453e+03 5.356234e+02 2.699099e-03 3.349372e-02 3.482217e-02
0.242685       -1.682659e+03 -2.016337e+04 -8.942959e+03 -1.682661e+03 -2.016339e+04 -8.942981e+03 1.763823e-03 2.161719e-02 2.159837e-02
