x,y,z,alpha.water
0.15,0,-0.125,1.00001
0.15,3.30872e-24,-0.125,1.00001
0.15,2.15828e-19,-0.120833,1.00001
0.15,4.31653e-19,-0.116667,1.00001
0.15,4.31652e-19,-0.1125,1.00001
0.15,4.31651e-19,-0.108333,1.00001
0.15,4.31653e-19,-0.104166,1.00001
0.15,4.31656e-19,-0.1,1.00001
0.15,4.31654e-19,-0.0958333,1.00001
0.15,4.31653e-19,-0.0916667,1.00001
0.15,4.31658e-19,-0.0875,1.00001
0.15,4.31663e-19,-0.0833333,1.00001
0.15,4.31661e-19,-0.08125,1.00001
0.15,4.31659e-19,-0.0791667,1.00001
0.15,4.31661e-19,-0.0781251,1.00001
0.15,4.31663e-19,-0.0770836,1.00001
0.15,4.31662e-19,-0.0760418,1.00001
0.15,4.31661e-19,-0.075,1.00001
0.15,4.3166e-19,-0.0739584,1.00001
0.15,4.3166e-19,-0.0729167,1.00001
0.15,4.3166e-19,-0.071875,1.00001
0.15,4.3166e-19,-0.0708333,1.00001
0.15,4.31662e-19,-0.0697917,1.00001
0.15,4.31663e-19,-0.0687501,1.00001
0.15,4.31663e-19,-0.0677084,1.00001
0.15,4.31663e-19,-0.0666667,1.00001
0.15,4.31661e-19,-0.065625,1.00001
0.15,4.31659e-19,-0.0645834,1.00001
0.15,4.3166e-19,-0.0635417,1.00001
0.15,4.31661e-19,-0.0625,1.00001
0.15,4.3166e-19,-0.0614583,1.00001
0.15,4.31659e-19,-0.0604167,1.00001
0.15,4.31659e-19,-0.059375,1.00001
0.15,4.31659e-19,-0.0583333,1.00001
0.15,4.31659e-19,-0.0572917,1.00001
0.15,4.31659e-19,-0.05625,1.00001
0.15,4.3166e-19,-0.0552084,1.00001
0.15,4.3166e-19,-0.0541667,1.00001
0.15,4.3166e-19,-0.0531251,1.00001
0.15,4.3166e-19,-0.0520834,1.00001
0.15,4.3166e-19,-0.0510417,1.00001
0.15,4.3166e-19,-0.05,1.00001
0.15,4.3166e-19,-0.0489583,1.00001
0.15,4.31661e-19,-0.0479167,1.00001
0.15,4.31661e-19,-0.046875,1.00001
0.15,4.31661e-19,-0.0458333,1.00001
0.15,4.31661e-19,-0.0447917,1.00001
0.15,4.31661e-19,-0.04375,1.00001
0.15,4.31662e-19,-0.0427084,1.00001
0.15,4.31662e-19,-0.0416667,1.00001
0.15,4.31662e-19,-0.040625,1.00001
0.15,4.31662e-19,-0.0395834,1.00001
0.15,4.31662e-19,-0.0385417,1.00001
0.15,4.31662e-19,-0.0375,1.00001
0.15,4.31662e-19,-0.0364583,1.00001
0.15,4.31661e-19,-0.0354166,1.00001
0.15,4.31662e-19,-0.034375,1.00001
0.15,4.31662e-19,-0.0333333,1.00001
0.15,4.31662e-19,-0.0322917,1.00001
0.15,4.31662e-19,-0.03125,1.00001
0.15,0,-0.03125,1.00001
0.15,-1.95355e-19,-0.0302084,1.00001
0.15,-3.9071e-19,-0.0291667,1.00001
0.15,-3.9071e-19,-0.0281251,1.00001
0.15,-3.9071e-19,-0.0270834,1.00001
0.15,-3.9071e-19,-0.0260417,1.00001
0.15,-3.9071e-19,-0.025,1.00001
0.15,-3.9071e-19,-0.0239583,1.00001
0.15,-3.9071e-19,-0.0229166,1.00001
0.15,-3.9071e-19,-0.0226405,1.00001
0.15,-3.9071e-19,-0.0223643,1.00001
0.15,-3.9071e-19,-0.0215988,1.00001
0.15,-3.9071e-19,-0.0208333,1.00001
0.15,-3.9071e-19,-0.0203931,1.00001
0.15,-3.9071e-19,-0.0199528,1.00001
0.15,-3.9071e-19,-0.0193514,1.00001
0.15,-3.9071e-19,-0.01875,1.00001
0.15,-3.9071e-19,-0.0177084,1.00001
0.15,-3.9071e-19,-0.0166667,1.00001
0.15,-3.9071e-19,-0.0156251,1.00001
0.15,-3.9071e-19,-0.0145834,1.00001
0.15,-3.9071e-19,-0.0135417,1.00001
0.15,-3.9071e-19,-0.0125,1.00001
0.15,-3.9071e-19,-0.0114584,1.00001
0.15,-3.9071e-19,-0.0104167,1.00001
0.15,-3.9071e-19,-0.00937502,1.00001
0.15,-3.9071e-19,-0.00833333,1.00001
0.15,-3.9071e-19,-0.00729166,1.00001
0.15,-3.9071e-19,-0.00624998,1.00001
0.15,-3.9071e-19,-0.00520833,1.00001
0.15,-3.9071e-19,-0.00416667,1.00001
0.15,-3.9071e-19,-0.003125,1.00001
0.15,-3.9071e-19,-0.00208333,1.00001
0.15,-3.9071e-19,-0.00104166,1.00001
0.15,-3.9071e-19,3.02537e-11,1.00001
0.15,-3.9071e-19,0.00104167,1.00001
0.15,-3.9071e-19,0.00208333,1.00001
0.15,1.03398e-25,0.00208333,1.00001
0.15,9.23051e-20,0.003125,1.00001
0.15,1.8461e-19,0.00416667,1.00001
0.15,1.8461e-19,0.00520833,1.00001
0.15,1.8461e-19,0.00624998,1.00001
0.15,1.8461e-19,0.00729166,1.00001
0.15,1.8461e-19,0.00833333,1
0.15,1.8461e-19,0.00937502,1
0.15,1.8461e-19,0.0104167,1
0.15,1.8461e-19,0.0114584,1
0.15,1.8461e-19,0.0125,1
0.15,1.8461e-19,0.0135417,1
0.15,1.8461e-19,0.0145834,1
0.15,1.8461e-19,0.015625,1
0.15,1.8461e-19,0.0166667,1
0.15,1.8461e-19,0.0177083,1
0.15,1.8461e-19,0.01875,1
0.15,1.8461e-19,0.0197916,1
0.15,1.8461e-19,0.0208333,1
0.15,1.8461e-19,0.021875,1
0.15,1.8461e-19,0.0229166,1
0.15,1.8461e-19,0.0239583,1
0.15,1.8461e-19,0.025,0.999996
0.15,1.8461e-19,0.0260417,0.999996
0.15,1.8461e-19,0.0270834,0.999962
0.15,1.8461e-19,0.028125,0.999962
0.15,1.8461e-19,0.0291667,0.999646
0.15,1.8461e-19,0.0302083,0.999646
0.15,1.8461e-19,0.03125,0.994647
0.15,1.8461e-19,0.0322916,0.994647
0.15,1.8461e-19,0.0333333,0.900603
0.15,1.8461e-19,0.034375,0.900603
0.15,1.8461e-19,0.0354167,0.449788
0.15,1.8461e-19,0.0364583,0.449788
0.15,1.8461e-19,0.0375,0.449788
0.15,2.58494e-26,0.0375,0.0732114
0.15,2.78204e-19,0.0385417,0.0732114
0.15,5.56408e-19,0.0395834,0.00654866
0.15,5.56408e-19,0.040625,0.00654866
0.15,5.56408e-19,0.0416667,0.000738822
0.15,5.56408e-19,0.0427084,0.000738822
0.15,5.56408e-19,0.0437501,7.3896e-05
0.15,5.56408e-19,0.0447917,7.3896e-05
0.15,5.56408e-19,0.0458334,1.3523e-05
0.15,5.56408e-19,0.0468751,1.3523e-05
0.15,5.56408e-19,0.0479167,2.83138e-06
0.15,5.56408e-19,0.0489584,2.83138e-06
0.15,5.56408e-19,0.05,6.02698e-07
0.15,5.56408e-19,0.0510417,6.02698e-07
0.15,5.56408e-19,0.0520834,5.36293e-08
0.15,5.56408e-19,0.0531251,5.36293e-08
0.15,5.56408e-19,0.0541667,6.50053e-08
0.15,5.56408e-19,0.0552084,6.50053e-08
0.15,5.56408e-19,0.0562501,2.17057e-08
0.15,5.56408e-19,0.0572918,2.17057e-08
0.15,5.56408e-19,0.0583335,1.23356e-08
0.15,5.56408e-19,0.0593752,1.23356e-08
0.15,5.56408e-19,0.0604168,6.99326e-09
0.15,5.56408e-19,0.0614585,6.99326e-09
0.15,5.56408e-19,0.0625002,3.71531e-09
0.15,5.56408e-19,0.0635419,3.71531e-09
0.15,5.56408e-19,0.0645836,2.22466e-09
0.15,5.56408e-19,0.0656253,2.22466e-09
0.15,5.56408e-19,0.066667,1.75986e-09
0.15,5.56408e-19,0.0677088,1.75986e-09
0.15,5.56408e-19,0.0687505,1.59813e-09
0.15,5.56408e-19,0.0697922,1.59813e-09
0.15,5.56408e-19,0.0708338,1.50253e-09
0.15,5.56408e-19,0.0718756,1.50253e-09
0.15,5.56407e-19,0.0729174,1.39599e-09
0.15,5.56408e-19,0.0739591,1.39599e-09
0.15,5.56408e-19,0.0750008,1.24195e-09
0.15,5.56409e-19,0.0760427,1.24195e-09
0.15,5.56409e-19,0.0770846,1.04692e-09
0.15,5.56408e-19,0.0781263,1.04692e-09
0.15,5.56408e-19,0.0791679,8.00139e-10
0.15,5.56408e-19,0.0812517,8.00139e-10
0.15,5.56408e-19,0.0833354,8.55068e-10
0.15,5.56409e-19,0.0875039,8.55068e-10
0.15,5.5641e-19,0.0916725,1.41755e-09
0.15,5.5641e-19,0.0958418,1.41755e-09
0.15,5.5641e-19,0.100011,4.64603e-09
0.15,5.5641e-19,0.101914,4.64603e-09
0.15,5.5641e-19,0.103817,5.12458e-09
0.15,5.5641e-19,0.110258,5.12458e-09
0.15,5.5641e-19,0.116699,5.12458e-09
0.15,8.37312e-08,0.116699,3.69791e-09
0.15,8.37312e-08,0.125047,3.69791e-09
0.15,8.37312e-08,0.133395,1.68932e-09
