x,y,z,alpha.water
0.1,0,-0.125,1.00001
0.1,5.98868e-19,-0.123557,1.00001
0.1,1.19774e-18,-0.122115,1.00001
0.1,1.19774e-18,-0.119391,1.00001
0.1,1.19774e-18,-0.116667,1.00001
0.1,-4.1359e-25,-0.116667,1.00001
0.1,-6.10889e-20,-0.1125,1.00001
0.1,-1.22177e-19,-0.108333,1.00001
0.1,-1.22177e-19,-0.104166,1.00001
0.1,-1.22177e-19,-0.1,1.00001
0.1,-1.22177e-19,-0.0958333,1.00001
0.1,-1.22178e-19,-0.0916667,1.00001
0.1,-1.22178e-19,-0.0875,1.00001
0.1,-1.22177e-19,-0.0833333,1.00001
0.1,-1.22178e-19,-0.08125,1.00001
0.1,-1.22178e-19,-0.0791667,1.00001
0.1,-1.22178e-19,-0.078125,1.00001
0.1,-1.22178e-19,-0.0770834,1.00001
0.1,-1.22178e-19,-0.0760417,1.00001
0.1,-1.22177e-19,-0.075,1.00001
0.1,-1.22177e-19,-0.0739584,1.00001
0.1,-1.22177e-19,-0.0729167,1.00001
0.1,-1.22176e-19,-0.071875,1.00001
0.1,-1.22176e-19,-0.0708333,1.00001
0.1,-1.22176e-19,-0.0697917,1.00001
0.1,-1.22176e-19,-0.06875,1.00001
0.1,-1.22176e-19,-0.0677084,1.00001
0.1,-1.22176e-19,-0.0666667,1.00001
0.1,-1.22177e-19,-0.065625,1.00001
0.1,-1.22177e-19,-0.0645834,1.00001
0.1,-1.22177e-19,-0.0635417,1.00001
0.1,-1.22177e-19,-0.0625,1.00001
0.1,-1.22177e-19,-0.0614583,1.00001
0.1,-1.22177e-19,-0.0604167,1.00001
0.1,-1.22177e-19,-0.059375,1.00001
0.1,-1.22177e-19,-0.0583333,1.00001
0.1,-1.22177e-19,-0.0572916,1.00001
0.1,-1.22177e-19,-0.05625,1.00001
0.1,-1.22177e-19,-0.0552083,1.00001
0.1,-1.22177e-19,-0.0541667,1.00001
0.1,-1.22177e-19,-0.053125,1.00001
0.1,-1.22177e-19,-0.0520834,1.00001
0.1,-1.22177e-19,-0.0510417,1.00001
0.1,-1.22177e-19,-0.05,1.00001
0.1,-1.22177e-19,-0.0489583,1.00001
0.1,-1.22177e-19,-0.0479167,1.00001
0.1,-1.22177e-19,-0.046875,1.00001
0.1,-1.22177e-19,-0.0458333,1
0.1,-1.22177e-19,-0.0447916,1
0.1,-1.22177e-19,-0.04375,1.00001
0.1,-1.22177e-19,-0.0427083,1.00001
0.1,0,-0.0416667,1.00001
0.1,-1.22177e-19,-0.0416667,1.00001
0.1,-5.89719e-20,-0.0406251,1.00001
0.1,-1.17944e-19,-0.0395834,1.00001
0.1,-1.17944e-19,-0.0385417,1.00001
0.1,-1.17944e-19,-0.0375,1.00001
0.1,-1.17944e-19,-0.0364583,1.00001
0.1,-1.17944e-19,-0.0354167,1.00001
0.1,-1.17944e-19,-0.034375,1.00001
0.1,-1.17944e-19,-0.0333333,1.00001
0.1,-1.17944e-19,-0.0322917,1.00001
0.1,-1.17944e-19,-0.03125,1.00001
0.1,-1.17944e-19,-0.0302084,1.00001
0.1,-1.17944e-19,-0.0291667,1
0.1,-1.17944e-19,-0.0281251,1
0.1,-1.17944e-19,-0.0270834,1
0.1,-1.17944e-19,-0.0260417,1
0.1,-1.17944e-19,-0.025,1
0.1,-1.17944e-19,-0.0239584,1
0.1,-1.17944e-19,-0.0229167,1
0.1,-1.17944e-19,-0.021875,1
0.1,-1.17944e-19,-0.0208333,1
0.1,-1.17944e-19,-0.0197917,1
0.1,-1.17944e-19,-0.01875,1
0.1,-1.17944e-19,-0.0177084,1
0.1,-1.17944e-19,-0.0166667,1
0.1,-1.17944e-19,-0.015625,1
0.1,-1.17944e-19,-0.0145834,1
0.1,-1.17944e-19,-0.0135417,1
0.1,-1.17944e-19,-0.0125,1
0.1,-1.17944e-19,-0.0114584,1
0.1,-1.17944e-19,-0.0104167,1
0.1,-1.17944e-19,-0.00937502,1
0.1,-1.17944e-19,-0.00833333,1
0.1,-1.17944e-19,-0.00729167,1
0.1,-1.17944e-19,-0.00625,1
0.1,-1.17944e-19,-0.00520834,1
0.1,-1.17944e-19,-0.00416667,1
0.1,-1.17944e-19,-0.003125,1
0.1,-1.17944e-19,-0.00208333,1
0.1,-1.17944e-19,-0.00104166,1
0.1,-1.17944e-19,1.04725e-10,1
0.1,-1.17944e-19,0.00104167,1
0.1,-1.17944e-19,0.00208334,1
0.1,-1.17944e-19,0.00312501,1
0.1,-1.17944e-19,0.00416667,1
0.1,-1.17944e-19,0.00520834,1
0.1,-1.17944e-19,0.00625,1
0.1,-1.17944e-19,0.00700139,1
0.1,2.08335e-08,0.00763832,1
0.1,-1.17944e-19,0.00775278,1
0.1,2.08335e-08,0.00798583,1
0.1,2.08335e-08,0.00833333,1
0.1,2.08335e-08,0.00937502,1
0.1,2.08335e-08,0.0104167,0.999999
0.1,2.08335e-08,0.0114584,0.999999
0.1,2.08335e-08,0.0125,0.999988
0.1,2.08335e-08,0.0135417,0.999988
0.1,2.08335e-08,0.0145833,0.999876
0.1,2.08335e-08,0.015625,0.999876
0.1,2.08335e-08,0.0166667,0.997178
0.1,2.08335e-08,0.0177083,0.997178
0.1,2.08335e-08,0.01875,0.915108
0.1,2.08335e-08,0.0197917,0.915108
0.1,2.08335e-08,0.0208333,0.454786
0.1,2.08335e-08,0.021875,0.454786
0.1,2.08335e-08,0.0229166,0.0505749
0.1,2.08335e-08,0.0239583,0.0505749
0.1,2.08335e-08,0.025,0.000944002
0.1,2.08335e-08,0.0260417,0.000944002
0.1,2.08335e-08,0.0270834,3.20276e-05
0.1,2.08335e-08,0.028125,3.20276e-05
0.1,2.08335e-08,0.0291667,1.59831e-05
0.1,2.08335e-08,0.0302084,1.59831e-05
0.1,2.08335e-08,0.0312501,3.72117e-06
0.1,2.08335e-08,0.0322917,3.72117e-06
0.1,2.08335e-08,0.0333334,6.63e-07
0.1,2.08335e-08,0.034375,6.63e-07
0.1,2.08335e-08,0.0354167,1.48435e-07
0.1,2.08335e-08,0.0364583,1.48435e-07
0.1,2.08335e-08,0.0375,4.07596e-08
0.1,2.08335e-08,0.0385417,4.07596e-08
0.1,6.46235e-27,0.0395834,5.93172e-09
0.1,2.08335e-08,0.0395834,4.07596e-08
0.1,-1.1961e-19,0.0406251,5.93172e-09
0.1,-2.3922e-19,0.0416667,9.96171e-10
0.1,-2.3922e-19,0.0427084,9.96171e-10
0.1,-2.3922e-19,0.0437501,6.73509e-10
0.1,-2.3922e-19,0.0447918,6.73509e-10
0.1,-2.3922e-19,0.0458334,6.98829e-10
0.1,-2.3922e-19,0.0468751,6.98829e-10
0.1,-2.3922e-19,0.0479168,7.0729e-10
0.1,-2.3922e-19,0.0489585,7.0729e-10
0.1,-2.3922e-19,0.0500002,6.90919e-10
0.1,-2.3922e-19,0.0510419,6.90919e-10
0.1,-2.3922e-19,0.0520836,6.20656e-10
0.1,-2.3922e-19,0.0531253,6.20656e-10
0.1,-2.3922e-19,0.054167,5.29237e-10
0.1,-2.3922e-19,0.0552087,5.29237e-10
0.1,-2.3922e-19,0.0562504,4.70018e-10
0.1,-2.3922e-19,0.0572921,4.70018e-10
0.1,-2.3922e-19,0.0583338,4.48737e-10
0.1,-2.3922e-19,0.0593756,4.48737e-10
0.1,-2.3922e-19,0.0604173,4.4449e-10
0.1,-2.3922e-19,0.061459,4.4449e-10
0.1,-2.3922e-19,0.0625008,4.44268e-10
0.1,-2.3922e-19,0.0635425,4.44268e-10
0.1,-2.3922e-19,0.0645843,4.44291e-10
0.1,-2.3922e-19,0.0656261,4.44291e-10
0.1,-2.3922e-19,0.0666679,4.44358e-10
0.1,-2.3922e-19,0.0677097,4.44358e-10
0.1,-2.3922e-19,0.0687515,4.44529e-10
0.1,-2.3922e-19,0.0697933,4.44529e-10
0.1,-2.3922e-19,0.0708352,5.28227e-10
0.1,-2.3922e-19,0.0718771,5.28227e-10
0.1,-2.39221e-19,0.072919,1.03268e-09
0.1,-2.39221e-19,0.0739609,1.03268e-09
0.1,-2.39221e-19,0.0750028,1.98258e-09
0.1,-2.3922e-19,0.0760448,1.98258e-09
0.1,-2.39219e-19,0.0770868,2.16967e-09
0.1,-2.39219e-19,0.0781289,2.16967e-09
0.1,-2.3922e-19,0.079171,1.51315e-09
0.1,-2.3922e-19,0.0812558,1.51315e-09
0.1,-2.3922e-19,0.0833405,8.21457e-10
0.1,-2.3922e-19,0.0875132,8.21457e-10
0.1,-2.39221e-19,0.0916858,5.03342e-10
0.1,-2.39213e-19,0.0958613,5.03342e-10
0.1,-2.39205e-19,0.100037,5.94614e-10
0.1,-2.39196e-19,0.108401,5.94614e-10
0.1,-2.39188e-19,0.116765,5.94614e-10
0.1,8.34701e-08,0.116765,9.59208e-10
0.1,8.34701e-08,0.125135,9.59208e-10
0.1,8.34701e-08,0.133504,1.41104e-09
