x,y,z,alpha.water
0.15,0,-0.125,1.00001
0.15,8.27181e-25,-0.125,1.00001
0.15,1.1898e-19,-0.120834,1.00001
0.15,2.3796e-19,-0.116667,1.00001
0.15,2.37962e-19,-0.1125,1.00001
0.15,2.37963e-19,-0.108333,1.00001
0.15,2.37951e-19,-0.104166,1.00001
0.15,2.37939e-19,-0.1,1.00001
0.15,2.3794e-19,-0.0958333,1.00001
0.15,2.37941e-19,-0.0916667,1.00001
0.15,2.37941e-19,-0.0875,1.00001
0.15,2.3794e-19,-0.0833333,1.00001
0.15,2.37937e-19,-0.08125,1.00001
0.15,2.37934e-19,-0.0791667,1.00001
0.15,2.37934e-19,-0.078125,1.00001
0.15,2.37934e-19,-0.0770834,1.00001
0.15,2.37935e-19,-0.0760417,1.00001
0.15,2.37937e-19,-0.075,1.00001
0.15,2.37937e-19,-0.0739583,1.00001
0.15,2.37937e-19,-0.0729166,1.00001
0.15,2.37936e-19,-0.0718749,1.00001
0.15,2.37936e-19,-0.0708333,1.00001
0.15,2.37935e-19,-0.0697916,1.00001
0.15,2.37934e-19,-0.06875,1.00001
0.15,2.37935e-19,-0.0677083,1.00001
0.15,2.37936e-19,-0.0666667,1.00001
0.15,2.37936e-19,-0.065625,1.00001
0.15,2.37935e-19,-0.0645833,1.00001
0.15,2.37934e-19,-0.0635416,1.00001
0.15,2.37933e-19,-0.0625,1.00001
0.15,2.37932e-19,-0.0614583,1.00001
0.15,2.37932e-19,-0.0604166,1.00001
0.15,2.37932e-19,-0.059375,1.00001
0.15,2.37932e-19,-0.0583333,1.00001
0.15,2.37933e-19,-0.0572916,1.00001
0.15,2.37934e-19,-0.05625,1.00001
0.15,2.37932e-19,-0.0552083,1.00001
0.15,2.37931e-19,-0.0541667,1
0.15,2.37932e-19,-0.053125,1
0.15,2.37934e-19,-0.0520834,1
0.15,2.37935e-19,-0.0510417,1
0.15,2.37936e-19,-0.05,1
0.15,2.37936e-19,-0.0489583,1
0.15,2.37937e-19,-0.0479167,1
0.15,2.37938e-19,-0.046875,1
0.15,2.37939e-19,-0.0458333,0.999999
0.15,2.37939e-19,-0.0447916,0.999999
0.15,2.37939e-19,-0.04375,0.999992
0.15,2.37939e-19,-0.0427083,0.999992
0.15,2.37939e-19,-0.0416667,0.999963
0.15,2.37939e-19,-0.040625,0.999963
0.15,2.37939e-19,-0.0395833,0.999846
0.15,2.37939e-19,-0.0385417,0.999846
0.15,2.37939e-19,-0.0375,0.999352
0.15,2.37939e-19,-0.0364583,0.999352
0.15,2.37939e-19,-0.0354167,0.99411
0.15,2.37939e-19,-0.0349019,0.99411
0.15,2.37939e-19,-0.0343872,0.994114
0.15,2.37939e-19,-0.0338602,0.994114
0.15,2.37939e-19,-0.0333333,0.893795
0.15,2.37939e-19,-0.0322916,0.893795
0.15,2.37939e-19,-0.03125,0.416542
0.15,2.37939e-19,-0.0302083,0.416542
0.15,2.37939e-19,-0.0291667,0.0510755
0.15,2.37939e-19,-0.028125,0.0510755
0.15,0,-0.0270834,0.00401743
0.15,2.37938e-19,-0.0270834,0.0510755
0.15,8.31595e-20,-0.0260417,0.00401743
0.15,1.66319e-19,-0.025,0.000425256
0.15,1.66318e-19,-0.0239583,0.000425256
0.15,1.66318e-19,-0.0229167,4.68674e-05
0.15,1.66318e-19,-0.021875,4.68674e-05
0.15,1.66319e-19,-0.0208333,5.29979e-06
0.15,1.66319e-19,-0.0197916,5.29979e-06
0.15,1.66319e-19,-0.01875,6.78153e-07
0.15,1.66319e-19,-0.0177083,6.78153e-07
0.15,1.66319e-19,-0.0166667,9.00953e-08
0.15,1.66319e-19,-0.015625,9.00953e-08
0.15,1.66318e-19,-0.0145834,1.47697e-08
0.15,1.66319e-19,-0.0135417,1.47697e-08
0.15,1.6632e-19,-0.0125,3.04474e-09
0.15,1.66321e-19,-0.0114583,3.04474e-09
0.15,1.66322e-19,-0.0104167,1.19563e-09
0.15,1.66321e-19,-0.00937501,1.19563e-09
0.15,1.6632e-19,-0.00833333,8.26634e-10
0.15,1.6632e-19,-0.00729166,8.26634e-10
0.15,1.6632e-19,-0.00625,8.25429e-10
0.15,1.6632e-19,-0.00520833,8.25429e-10
0.15,1.66321e-19,-0.00416667,8.89839e-10
0.15,1.6632e-19,-0.003125,8.89839e-10
0.15,1.6632e-19,-0.00208333,9.73877e-10
0.15,1.6632e-19,-0.00104166,9.73877e-10
0.15,1.6632e-19,8.2123e-12,9.73877e-10
0.15,-1.80946e-25,8.2123e-12,9.90322e-10
0.15,3.70723e-20,0.00104167,9.90322e-10
0.15,7.41448e-20,0.00208333,9.94049e-10
0.15,7.41447e-20,0.003125,9.94049e-10
0.15,7.41445e-20,0.00416667,9.90506e-10
0.15,7.41447e-20,0.00520834,9.90506e-10
0.15,7.41449e-20,0.00625,9.6395e-10
0.15,7.41447e-20,0.00729167,9.6395e-10
0.15,7.41446e-20,0.00833333,9.48101e-10
0.15,7.41446e-20,0.00937502,9.48101e-10
0.15,7.41446e-20,0.0104167,9.44759e-10
0.15,7.41446e-20,0.0106696,9.44759e-10
0.15,7.41446e-20,0.0109225,1.18601e-09
0.15,7.41446e-20,0.0117113,1.18601e-09
0.15,7.41446e-20,0.0125,1.29193e-09
0.15,7.41446e-20,0.0135417,1.29193e-09
0.15,7.41445e-20,0.0145834,1.47248e-09
0.15,7.41447e-20,0.0156251,1.47248e-09
0.15,7.4145e-20,0.0166667,1.56828e-09
0.15,7.41449e-20,0.0174206,1.56828e-09
0.15,7.41448e-20,0.0181746,1.15853e-09
0.15,7.41448e-20,0.0184623,1.15853e-09
0.15,7.41447e-20,0.01875,1.29197e-09
0.15,7.41445e-20,0.0197917,1.29197e-09
0.15,7.41443e-20,0.0208333,1.38447e-09
0.15,7.41442e-20,0.021875,1.38447e-09
0.15,7.41441e-20,0.0229167,1.42919e-09
0.15,7.41439e-20,0.0239583,1.42919e-09
0.15,7.41436e-20,0.025,1.44641e-09
0.15,7.41437e-20,0.0260417,1.44641e-09
0.15,7.41437e-20,0.0270834,1.44383e-09
0.15,7.41439e-20,0.0281251,1.44383e-09
0.15,7.41441e-20,0.0291667,1.33749e-09
0.15,7.41439e-20,0.0302084,1.33749e-09
0.15,7.41437e-20,0.03125,1.17308e-09
0.15,7.41441e-20,0.0322917,1.17308e-09
0.15,7.41444e-20,0.0333333,1.0598e-09
0.15,7.41439e-20,0.034375,1.0598e-09
0.15,7.41433e-20,0.0354167,1.01073e-09
0.15,7.41435e-20,0.0364583,1.01073e-09
0.15,7.41437e-20,0.0375,9.97513e-10
0.15,7.4144e-20,0.0385417,9.97513e-10
0.15,7.41442e-20,0.0395834,9.97513e-10
0.15,2.09311e-08,0.0395834,9.95553e-10
0.15,2.09311e-08,0.0406251,9.95553e-10
0.15,2.09311e-08,0.0416667,1.02175e-09
0.15,2.09311e-08,0.0427084,1.02175e-09
0.15,2.09311e-08,0.04375,1.11542e-09
0.15,2.09311e-08,0.0447917,1.11542e-09
0.15,2.09311e-08,0.0458333,1.22462e-09
0.15,2.09311e-08,0.046875,1.22462e-09
0.15,2.09311e-08,0.0479167,1.28845e-09
0.15,2.09311e-08,0.0489583,1.28845e-09
0.15,2.09311e-08,0.05,1.32987e-09
0.15,2.09311e-08,0.0510417,1.32987e-09
0.15,2.09311e-08,0.0520833,1.49133e-09
0.15,2.09311e-08,0.053125,1.49133e-09
0.15,2.09311e-08,0.0541667,1.92187e-09
0.15,2.09311e-08,0.0552084,1.92187e-09
0.15,2.09311e-08,0.0562501,2.38981e-09
0.15,2.09311e-08,0.0572918,2.38981e-09
0.15,2.09311e-08,0.0583334,1.79774e-09
0.15,2.09311e-08,0.0593751,1.79774e-09
0.15,2.09311e-08,0.0604167,1.7426e-09
0.15,2.09311e-08,0.0614584,1.7426e-09
0.15,2.09311e-08,0.0625001,2.4799e-09
0.15,2.09311e-08,0.0635418,2.4799e-09
0.15,2.09311e-08,0.0645835,2.41409e-09
0.15,2.09311e-08,0.0656251,2.41409e-09
0.15,2.09311e-08,0.0666668,2.76232e-09
0.15,2.09311e-08,0.0677084,2.76232e-09
0.15,2.09311e-08,0.0687501,3.11383e-09
0.15,2.09311e-08,0.0697918,3.11383e-09
0.15,2.09311e-08,0.0708335,3.38902e-09
0.15,2.09311e-08,0.0718752,3.38902e-09
0.15,2.09311e-08,0.0729169,3.40886e-09
0.15,2.09311e-08,0.0739585,3.40886e-09
0.15,2.09311e-08,0.0750002,3.2406e-09
0.15,2.09311e-08,0.0760419,3.2406e-09
0.15,2.09311e-08,0.0770837,3.11124e-09
0.15,2.09311e-08,0.0781253,3.11124e-09
0.15,2.09311e-08,0.079167,2.949e-09
0.15,2.09311e-08,0.0812505,2.949e-09
0.15,2.09311e-08,0.083334,2.78346e-09
0.15,2.09311e-08,0.0875011,2.78346e-09
0.15,2.09311e-08,0.0916682,1.73394e-09
0.15,2.09311e-08,0.0935625,1.73394e-09
0.15,2.09311e-08,0.0954568,1.63518e-09
0.15,2.09311e-08,0.0977299,1.63518e-09
0.15,2.09311e-08,0.100003,1.17859e-09
0.15,2.09311e-08,0.102163,1.17859e-09
0.15,2.09311e-08,0.104322,1.26768e-09
0.15,2.09311e-08,0.10633,1.26768e-09
0.15,2.09311e-08,0.108338,1.09448e-09
0.15,2.09311e-08,0.112506,1.09448e-09
0.15,2.09311e-08,0.116674,1.09448e-09
0.15,2.06795e-25,0.116674,1.08217e-09
0.15,5.83424e-19,0.120842,1.08217e-09
0.15,1.16685e-18,0.12501,1.08249e-09
