x,y,z,alpha.water
0,0.1,-0.125,1
-9.21572e-19,0.1,-0.120833,1
-1.57209e-18,0.1,-0.116667,1
-1.84314e-18,0.1,-0.116667,1
-1.73134e-18,0.1,-0.1125,1
-1.89058e-18,0.1,-0.108333,1
-2.02949e-18,0.1,-0.104166,1
-2.1684e-18,0.1,-0.1,1
-1.9973e-18,0.1,-0.0958334,1
-1.8262e-18,0.1,-0.0916667,1
-1.94309e-18,0.1,-0.0875,1
-2.05998e-18,0.1,-0.0833333,1
-2.00577e-18,0.1,-0.08125,1
-1.95156e-18,0.1,-0.0791667,1
-2.1684e-18,0.1,-0.0781251,1
-2.38524e-18,0.1,-0.0770834,1
-2.27682e-18,0.1,-0.0760417,1
-2.1684e-18,0.1,-0.075,1
-2.54788e-18,0.1,-0.0739584,1
-2.92735e-18,0.1,-0.0729167,1
-2.85831e-18,0.1,-0.071875,1
-2.78928e-18,0.1,-0.0708333,1
-2.96673e-18,0.1,-0.0697917,1
-3.14419e-18,0.1,-0.0687501,1
-2.98156e-18,0.1,-0.0677084,1
-2.81893e-18,0.1,-0.0666667,1
-2.81893e-18,0.1,-0.065625,1
-2.81893e-18,0.1,-0.0645833,1
-2.71051e-18,0.1,-0.0635417,1
-2.60209e-18,0.1,-0.0625,1
-2.60209e-18,0.1,-0.0614584,1
-2.60209e-18,0.1,-0.0604167,1
-2.49366e-18,0.1,-0.059375,1
-2.38524e-18,0.1,-0.0583333,1
-2.27682e-18,0.1,-0.0572917,1
-2.1684e-18,0.1,-0.05625,1
-1.95813e-18,0.1,-0.0552084,1
-1.74785e-18,0.1,-0.0541667,1
-1.74129e-18,0.1,-0.0531251,1
-1.73472e-18,0.1,-0.0520834,1
-1.95156e-18,0.1,-0.0510417,1
-2.1684e-18,0.1,-0.05,1
-2.1684e-18,0.1,-0.0489583,1
-2.1684e-18,0.1,-0.0479166,1
-2.1684e-18,0.1,-0.046875,1
-2.1684e-18,0.1,-0.0458333,1
-2.1684e-18,0.1,-0.0447917,1
-2.1684e-18,0.1,-0.04375,1
-2.1684e-18,0.1,-0.0427084,1
-2.1684e-18,0.1,-0.0416667,1
-2.1684e-18,0.1,-0.040625,1
-2.1684e-18,0.1,-0.0395833,1
-2.12192e-18,0.1,-0.0385417,1
-2.07544e-18,0.1,-0.0375,1
-2.12192e-18,0.1,-0.0364583,1
-2.1684e-18,0.1,-0.0354166,1
-2.27682e-18,0.1,-0.034375,1
-2.38524e-18,0.1,-0.0333333,1
-2.38524e-18,0.1,-0.0322917,1
-2.38524e-18,0.1,-0.03125,1
-2.49366e-18,0.1,-0.0302084,1
-2.60209e-18,0.1,-0.0291667,1
-2.60209e-18,0.1,-0.028125,1
-2.60209e-18,0.1,-0.0270833,1
-2.60209e-18,0.1,-0.0260417,1
-2.60209e-18,0.1,-0.025,1
-2.49366e-18,0.1,-0.0239584,1
-2.38524e-18,0.1,-0.0229167,1
-2.22103e-18,0.1,-0.021875,1
-2.05681e-18,0.1,-0.0208333,1
-2.00419e-18,0.1,-0.0197917,1
-1.95156e-18,0.1,-0.01875,0.999999
-1.95156e-18,0.1,-0.0177084,0.999999
-1.95156e-18,0.1,-0.0166667,0.999997
-2.05998e-18,0.1,-0.0156251,0.999997
-2.1684e-18,0.1,-0.0145834,0.999973
-2.05998e-18,0.1,-0.0135417,0.999973
-1.95156e-18,0.1,-0.0125,0.999732
-2.13421e-18,0.1,-0.0114584,0.999732
-2.31685e-18,0.1,-0.0104167,0.999732
6.14099e-20,0.1,-0.0104167,0.99544
-7.77153e-20,0.1,-0.00937502,0.99544
-2.1684e-19,0.1,-0.00833333,0.919511
-2.1684e-19,0.1,-0.00729167,0.919511
-2.1684e-19,0.1,-0.00625,0.443241
-1.11702e-19,0.1,-0.00520834,0.443241
-6.56451e-21,0.1,-0.00416667,0.0605839
1.05138e-19,0.1,-0.003125,0.0605839
2.1684e-19,0.1,-0.00208333,0.00221646
2.1684e-19,0.1,-0.00104166,0.00221646
2.1684e-19,0.1,8.12934e-11,5.65397e-05
2.1684e-19,0.1,0.00104167,5.65397e-05
2.1684e-19,0.1,0.00208334,4.74063e-06
1.0842e-19,0.1,0.00312501,4.74063e-06
0,0.1,0.00416667,4.60127e-07
1.0842e-19,0.1,0.00520833,4.60127e-07
2.1684e-19,0.1,0.00625,2.98473e-08
2.1684e-19,0.1,0.00729167,2.98473e-08
2.1684e-19,0.1,0.00833333,1.35725e-09
2.1684e-19,0.1,0.00937502,1.35725e-09
2.1684e-19,0.1,0.0104167,5.20955e-10
1.05403e-19,0.1,0.0114584,5.20955e-10
-6.03511e-21,0.1,0.0125,4.97655e-10
1.05403e-19,0.1,0.0135417,4.97655e-10
2.1684e-19,0.1,0.0145834,2.80912e-10
1.0842e-19,0.1,0.0156251,2.80912e-10
0,0.1,0.0166667,1.26648e-10
0,0.1,0.0177083,1.26648e-10
0,0.1,0.01875,5.12064e-11
0,0.1,0.0197917,5.12064e-11
0,0.1,0.0208333,2.05901e-11
-1.0842e-19,0.1,0.021875,2.05901e-11
-2.1684e-19,0.1,0.0229167,8.7283e-12
-1.0842e-19,0.1,0.0239583,8.7283e-12
0,0.1,0.025,3.69468e-12
0,0.1,0.0260416,3.69468e-12
0,0.1,0.0270833,1.58602e-12
9.17972e-20,0.1,0.028125,1.58602e-12
1.83594e-19,0.1,0.0291667,7.25298e-13
3.08638e-19,0.1,0.0302083,7.25298e-13
4.33681e-19,0.1,0.03125,2.87606e-13
4.33681e-19,0.1,0.0322916,2.87606e-13
4.33681e-19,0.1,0.0333333,9.2496e-14
4.33681e-19,0.1,0.034375,9.2496e-14
4.33681e-19,0.1,0.0354166,2.68773e-14
4.33681e-19,0.1,0.0364583,2.68773e-14
4.33681e-19,0.1,0.0375,8.18356e-15
4.33681e-19,0.1,0.0385416,8.18356e-15
4.33681e-19,0.1,0.0395833,2.39113e-15
4.33681e-19,0.1,0.040625,2.39113e-15
4.33681e-19,0.1,0.0416667,6.37209e-16
3.25261e-19,0.1,0.0427084,6.37209e-16
2.1684e-19,0.1,0.0437501,1.55169e-16
2.15464e-19,0.1,0.0447917,1.55169e-16
2.14088e-19,0.1,0.0458334,3.6377e-17
1.07044e-19,0.1,0.0468751,3.6377e-17
0,0.1,0.0479168,9.10152e-18
1.0842e-19,0.1,0.0489584,9.10152e-18
2.1684e-19,0.1,0.0500001,2.55144e-18
2.1684e-19,0.1,0.0510418,2.55144e-18
2.1684e-19,0.1,0.0520834,7.51377e-19
2.1684e-19,0.1,0.0531252,7.51377e-19
2.1684e-19,0.1,0.0541669,2.14407e-19
3.25261e-19,0.1,0.0552086,2.14407e-19
4.33681e-19,0.1,0.0562503,5.7598e-20
5.42101e-19,0.1,0.057292,5.7598e-20
6.50521e-19,0.1,0.0583337,1.47823e-20
5.42101e-19,0.1,0.0593754,1.47823e-20
4.33681e-19,0.1,0.0604172,3.71623e-21
4.45328e-19,0.1,0.0614589,3.71623e-21
4.56974e-19,0.1,0.0625006,9.23836e-22
2.28487e-19,0.1,0.0635424,9.23836e-22
0,0.1,0.0645841,2.24821e-22
1.6263e-19,0.1,0.0656259,2.24821e-22
3.25261e-19,0.1,0.0666676,5.27493e-23
4.33681e-19,0.1,0.0677095,5.27493e-23
5.42101e-19,0.1,0.0687513,1.18137e-23
3.79471e-19,0.1,0.0697931,1.18137e-23
2.1684e-19,0.1,0.0708348,2.51781e-24
5.42101e-20,0.1,0.0718767,2.51781e-24
-1.0842e-19,0.1,0.0729186,5.14067e-25
-1.6263e-19,0.1,0.0739604,5.14067e-25
-2.1684e-19,0.1,0.0750022,1.1367e-25
0,0.1,0.0760443,1.1367e-25
2.1684e-19,0.1,0.0770863,4.60142e-26
2.54533e-19,0.1,0.0781282,4.60142e-26
2.92226e-19,0.1,0.0791701,3.67762e-26
4.71374e-19,0.1,0.0812545,3.67762e-26
6.50521e-19,0.1,0.0833389,5.52858e-26
8.67362e-19,0.1,0.0875102,5.52858e-26
1.0842e-18,0.1,0.0916816,5.52858e-26
6.30193e-19,0.1,0.0916816,1.41451e-26
4.23516e-19,0.1,0.0958551,1.41451e-26
2.1684e-19,0.1,0.100029,6.74259e-26
-1.0842e-19,0.1,0.108387,6.74259e-26
-4.33681e-19,0.1,0.116745,2.84388e-27
-3.72694e-19,0.1,0.12511,2.84388e-27
-3.11708e-19,0.1,0.133475,3.27629e-29
