# Probe 0 (0 0 -0.1)  # Not Found
# Probe 1 (0 0.1 -0.1)
# Probe 2 (0 0.2 -0.1)
# Probe 3 (0.1 0.1 -0.1)
# Probe 4 (0 0 -0.1)  # Not Found
# Probe 5 (0.1 0 -0.1)
# Probe 6 (0.2 0 -0.1)
# Probe 7 (0 0.385 -0.1)
# Time        0             1             2             3             4             5             6             7            
0.0104684     -1e+300       1017.88       1001.1        973.699       -1e+300       981.971       914.019       0.745728     
0.0194119     -1e+300       997.159       937.322       945.775       -1e+300       983.227       901.673       0.793442     
0.0312535     -1e+300       962.339       834.725       906.05        -1e+300       990.063       896.331       0.869407     
0.0407267     -1e+300       1010.15       928.79        948.166       -1e+300       993.25        889.673       0.79601      
0.0502        -1e+300       1263.36       1493          1188.61       -1e+300       989.924       875.355       0.365028     
0.0611903     -1e+300       2107.55       3397.25       1996.61       -1e+300       975.812       849.572       -1.06841     
0.0693174     -1e+300       1781.75       2636.82       1675.35       -1e+300       989.528       855.065       -0.480455    
0.0803421     -1e+300       12935.2       27437         12279.7       -1e+300       843.825       588.919       -18.9661     
