# Probe 0 (0 0 -0.1)  # Not Found
# Probe 1 (0 0.1 -0.1)
# Probe 2 (0 0.2 -0.1)
# Probe 3 (0.1 0.1 -0.1)
# Probe 4 (0 0 -0.1)  # Not Found
# Probe 5 (0.1 0 -0.1)
# Probe 6 (0.2 0 -0.1)
# Probe 7 (0 0.385 -0.1)
# Time        0             1             2             3             4             5             6             7            
0.0104684     -1e+300       7.66737       2.51635       -31.4067      -1e+300       -28.2427      -84.5668      0.00918367   
0.0194119     -1e+300       -11.9774      -50.2957      -53.9133      -1e+300       -25.9055      -85.9454      0.056897     
0.0312535     -1e+300       -45.3797      -138.493      -86.5248      -1e+300       -17.6501      -76.8876      0.132863     
0.0407267     -1e+300       3.54672       -33.0563      -38.7911      -1e+300       -13.3417      -72.1748      0.0594657    
0.0502        -1e+300       257.866       542.345       207.187       -1e+300       -15.5639      -75.2982      -0.371517    
0.0611903     -1e+300       1103.3        2459.32       1021.47       -1e+300       -28.4227      -88.3658      -1.80495     
0.0693174     -1e+300       778.409       1708.06       704.736       -1e+300       -13.8014      -73.6925      -1.217       
0.0803421     -1e+300       11933.1       26520.3       11315.1       -1e+300       -158.311      -327.734      -19.7026     
