# Probe 0 (0 0 -0.1)  # Not Found
# Probe 1 (0 0.1 -0.1)
# Probe 2 (0 0.2 -0.1)
# Probe 3 (0.1 0.1 -0.1)
# Probe 4 (0 0 -0.1)  # Not Found
# Probe 5 (0.1 0 -0.1)
# Probe 6 (0.2 0 -0.1)
# Probe 7 (0 0.385 -0.1)
# Time        0             1             2             3             4             5             6             7            
0.0602        -1e+300       2328.1        3900.21       2204.02       -1e+300       972.541       843.333       -1.44485     
0.0702        -1e+300       806.508       392.004       734.577       -1e+300       1024.09       891.113       1.18256      
0.0802        -1e+300       114781        249418        108652        -1e+300       2260.73       -83.0801      -181.022     
