# Probe 0 (0 0 -0.1)  # Not Found
# Probe 1 (0 0.1 -0.1)
# Probe 2 (0 0.2 -0.1)
# Probe 3 (0.1 0.1 -0.1)
# Probe 4 (0 0 -0.1)  # Not Found
# Probe 5 (0.1 0 -0.1)
# Probe 6 (0.2 0 -0.1)
# Probe 7 (0 0.385 -0.1)
# Time        0             1             2             3             4             5             6             7            
0.0602        -1e+300       1323.81       2961.75       1228.62       -1e+300       -35.0021      -95.1424      -2.1814      
0.0702        -1e+300       -196.604      -534.549      -234.947      -1e+300       17.1886       -35.4607      0.446011     
0.0802        -1e+300       113779        248503        107689        -1e+300       1254.45       -998.081      -181.759     
