x,y,z,alpha.water
0.125,-1.65436e-24,-0.125,1
0.125,-1.65436e-24,-0.125,1
0.125,1.81853e-19,-0.120834,1
0.125,3.63708e-19,-0.116667,1.00001
0.125,3.6371e-19,-0.1125,1.00001
0.125,3.63711e-19,-0.108333,1.00001
0.125,3.63712e-19,-0.104167,1.00001
0.125,3.63713e-19,-0.1,1.00001
0.125,3.63712e-19,-0.0958334,1.00001
0.125,3.6371e-19,-0.0916667,1.00001
0.125,3.63713e-19,-0.0875,1.00001
0.125,3.63715e-19,-0.0833333,1.00001
0.125,3.63716e-19,-0.08125,1.00001
0.125,3.63718e-19,-0.0791667,1.00001
0.125,3.63718e-19,-0.078125,1.00001
0.125,3.63718e-19,-0.0770834,1.00001
0.125,3.63719e-19,-0.0760417,1.00001
0.125,3.6372e-19,-0.075,1.00001
0.125,3.63719e-19,-0.0739584,1.00001
0.125,3.63719e-19,-0.0729168,1.00001
0.125,3.63719e-19,-0.0718751,1.00001
0.125,3.63719e-19,-0.0708333,1.00001
0.125,3.63719e-19,-0.0697917,1.00001
0.125,3.6372e-19,-0.0687501,1.00001
0.125,3.6372e-19,-0.0677084,1.00001
0.125,3.6372e-19,-0.0666667,1.00001
0.125,3.63719e-19,-0.0656251,1.00001
0.125,3.63719e-19,-0.0645834,1.00001
0.125,3.63719e-19,-0.0635417,1.00001
0.125,3.63718e-19,-0.0625,1.00001
0.125,3.63718e-19,-0.0614583,1.00001
0.125,3.63718e-19,-0.0604167,1.00001
0.125,3.63718e-19,-0.059375,1.00001
0.125,3.63718e-19,-0.0583333,1.00001
0.125,3.63718e-19,-0.0572916,1.00001
0.125,3.63718e-19,-0.05625,1.00001
0.125,3.63719e-19,-0.0552083,1.00001
0.125,3.63719e-19,-0.0541667,1.00001
0.125,3.63719e-19,-0.053125,1.00001
0.125,3.6372e-19,-0.0520834,1.00001
0.125,3.6372e-19,-0.0510417,1.00001
0.125,3.6372e-19,-0.05,1.00001
0.125,3.6372e-19,-0.0489583,1.00001
0.125,3.6372e-19,-0.0479167,1.00001
0.125,3.6372e-19,-0.046875,1.00001
0.125,3.63719e-19,-0.0458333,1.00001
0.125,3.6372e-19,-0.0447916,1.00001
0.125,3.6372e-19,-0.04375,1.00001
0.125,3.6372e-19,-0.0427083,1.00001
0.125,3.6372e-19,-0.0416667,1.00001
0.125,3.63719e-19,-0.040625,1.00001
0.125,3.63719e-19,-0.0395833,1.00001
0.125,3.63719e-19,-0.0385417,1.00001
0.125,3.63719e-19,-0.0375,1.00001
0.125,3.63719e-19,-0.0364583,1.00001
0.125,3.63719e-19,-0.0354166,1.00001
0.125,3.63719e-19,-0.034375,1.00001
0.125,-5.16988e-26,-0.0333333,1.00001
0.125,3.63719e-19,-0.0333333,1.00001
0.125,1.0379e-19,-0.0322916,1.00001
0.125,2.07581e-19,-0.03125,1.00001
0.125,2.07581e-19,-0.0302083,1.00001
0.125,2.07581e-19,-0.0291667,1.00001
0.125,2.07581e-19,-0.028125,1.00001
0.125,2.07581e-19,-0.0270834,1.00001
0.125,2.07581e-19,-0.0260417,1.00001
0.125,2.07581e-19,-0.025,1.00001
0.125,2.07581e-19,-0.0239583,1.00001
0.125,2.07581e-19,-0.0229167,1.00001
0.125,2.07581e-19,-0.021875,1.00001
0.125,2.07581e-19,-0.0208333,1.00001
0.125,2.07581e-19,-0.0197916,1.00001
0.125,2.07581e-19,-0.01875,1.00001
0.125,2.07581e-19,-0.0177083,1.00001
0.125,2.07581e-19,-0.0166667,1.00001
0.125,2.07581e-19,-0.015625,1.00001
0.125,2.07581e-19,-0.0145834,1.00001
0.125,2.07581e-19,-0.0135417,1.00001
0.125,2.07581e-19,-0.0125,1.00001
0.125,2.07581e-19,-0.0114583,1.00001
0.125,2.07581e-19,-0.0104167,1.00001
0.125,2.07581e-19,-0.00937501,1.00001
0.125,2.07581e-19,-0.00833333,1
0.125,2.07581e-19,-0.00729167,1
0.125,2.07581e-19,-0.00625,1
0.125,2.07581e-19,-0.00520834,1
0.125,2.07581e-19,-0.00416667,1
0.125,2.07581e-19,-0.003125,1
0.125,2.07581e-19,-0.00208333,1
0.125,2.07581e-19,-0.00104166,1
0.125,2.07581e-19,4.05349e-11,1
0.125,2.07581e-19,0.00104167,1
0.125,2.07581e-19,0.00208334,1
0.125,5.16988e-26,0.00208334,1
0.125,-2.54626e-19,0.003125,1
0.125,-5.09252e-19,0.00416667,1
0.125,-5.09252e-19,0.00520833,1
0.125,-5.09252e-19,0.00625,1
0.125,-5.09252e-19,0.00729166,1
0.125,-5.09252e-19,0.00833333,1
0.125,-5.09252e-19,0.00937501,1
0.125,-5.09252e-19,0.0104167,1
0.125,-5.09252e-19,0.0114583,1
0.125,-5.09252e-19,0.0125,0.999993
0.125,-5.09252e-19,0.0135417,0.999993
0.125,-5.09252e-19,0.0145834,0.999941
0.125,-5.09252e-19,0.0156251,0.999941
0.125,-5.09252e-19,0.0166667,0.999511
0.125,-5.09252e-19,0.0177084,0.999511
0.125,-5.09252e-19,0.01875,0.990856
0.125,-5.09252e-19,0.0197917,0.990856
0.125,-5.09252e-19,0.0208333,0.848007
0.125,-5.09252e-19,0.021875,0.848007
0.125,-5.09252e-19,0.0229167,0.327027
0.125,-5.09252e-19,0.0239584,0.327027
0.125,-5.09252e-19,0.025,0.0282293
0.125,-5.09252e-19,0.0260417,0.0282293
0.125,-5.09252e-19,0.0270834,0.000866057
0.125,-5.09252e-19,0.028125,0.000866057
0.125,-5.09252e-19,0.0291667,4.1447e-05
0.125,-5.09252e-19,0.0302084,4.1447e-05
0.125,-5.09252e-19,0.03125,6.22138e-06
0.125,-5.09252e-19,0.0322917,6.22138e-06
0.125,-5.09252e-19,0.0333333,8.99754e-07
0.125,-5.09252e-19,0.034375,8.99754e-07
0.125,-5.09252e-19,0.0354166,6.3861e-08
0.125,-5.09252e-19,0.0364583,6.3861e-08
0.125,-5.09252e-19,0.0375,6.3861e-08
0.125,-2.58494e-26,0.0375,2.30878e-08
0.125,-2.98707e-19,0.0385417,2.30878e-08
0.125,-5.97414e-19,0.0395834,3.21023e-08
0.125,-5.97414e-19,0.040625,3.21023e-08
0.125,-5.97414e-19,0.0416667,2.57104e-08
0.125,-5.97414e-19,0.0427084,2.57104e-08
0.125,-5.97414e-19,0.04375,7.83013e-09
0.125,-5.97414e-19,0.0447917,7.83013e-09
0.125,-5.97414e-19,0.0458334,2.18795e-09
0.125,-5.97414e-19,0.0468751,2.18795e-09
0.125,-5.97414e-19,0.0479168,1.20554e-09
0.125,-5.97414e-19,0.0489585,1.20554e-09
0.125,-5.97414e-19,0.0500001,1.02909e-09
0.125,-5.97414e-19,0.0510418,1.02909e-09
0.125,-5.97414e-19,0.0520835,8.83605e-10
0.125,-5.97414e-19,0.0531251,8.83605e-10
0.125,-5.97414e-19,0.0541668,7.10811e-10
0.125,-5.97414e-19,0.0552085,7.10811e-10
0.125,-5.97414e-19,0.0562502,5.75853e-10
0.125,-5.97414e-19,0.0572918,5.75853e-10
0.125,-5.97414e-19,0.0583335,5.00719e-10
0.125,-5.97414e-19,0.0593752,5.00719e-10
0.125,-5.97414e-19,0.060417,4.54073e-10
0.125,-5.97414e-19,0.0614586,4.54073e-10
0.125,-5.97415e-19,0.0625003,4.15525e-10
0.125,-5.97414e-19,0.0635421,4.15525e-10
0.125,-5.97414e-19,0.0645838,3.80064e-10
0.125,-5.97414e-19,0.0656255,3.80064e-10
0.125,-5.97414e-19,0.0666671,3.48096e-10
0.125,-5.97414e-19,0.0677089,3.48096e-10
0.125,-5.97414e-19,0.0687507,3.20503e-10
0.125,-5.97414e-19,0.0697924,3.20503e-10
0.125,-5.97414e-19,0.070834,2.97536e-10
0.125,-5.97414e-19,0.0718759,2.97536e-10
0.125,-5.97414e-19,0.0729177,2.78899e-10
0.125,-5.97414e-19,0.0739594,2.78899e-10
0.125,-5.97414e-19,0.0750012,2.63938e-10
0.125,-5.97414e-19,0.0760431,2.63938e-10
0.125,-5.97414e-19,0.077085,2.51756e-10
0.125,-5.97414e-19,0.0781267,2.51756e-10
0.125,-5.97414e-19,0.0791684,2.39247e-10
0.125,-5.97414e-19,0.0812521,2.39247e-10
0.125,-5.97414e-19,0.0833359,2.38288e-10
0.125,-5.97414e-19,0.087505,2.38288e-10
0.125,-5.97414e-19,0.0916741,2.48488e-10
0.125,-5.97414e-19,0.0957229,2.48488e-10
0.125,-5.97414e-19,0.0997717,2.48735e-10
0.125,-5.97414e-19,0.0998924,2.48735e-10
0.125,-5.97414e-19,0.100013,2.95151e-10
0.125,-5.97413e-19,0.108361,2.95151e-10
0.125,-5.97413e-19,0.11671,2.95151e-10
0.125,8.36112e-08,0.11671,5.08355e-10
0.125,8.36112e-08,0.125061,5.08355e-10
0.125,8.36112e-08,0.133413,8.95425e-10
