x,y,z,alpha.water
0,0.15,-0.125,1
-3.25261e-19,0.15,-0.120834,1
-6.50521e-19,0.15,-0.116667,1
-5.42101e-20,0.15,-0.116667,1
4.06576e-19,0.15,-0.1125,1
8.67362e-19,0.15,-0.108333,1
5.96311e-19,0.15,-0.104166,1
3.25261e-19,0.15,-0.1,1
2.71051e-19,0.15,-0.0958333,1
2.1684e-19,0.15,-0.0916667,1
9.48677e-20,0.15,-0.0875,1
-2.71051e-20,0.15,-0.0833333,1
-6.77626e-20,0.15,-0.08125,1
-1.0842e-19,0.15,-0.0791667,1
-1.0842e-19,0.15,-0.0781251,1
-1.0842e-19,0.15,-0.0770835,1
1.6263e-19,0.15,-0.0760417,1
4.33681e-19,0.15,-0.075,1
3.79471e-19,0.15,-0.0739584,1
3.25261e-19,0.15,-0.0729168,1
3.25261e-19,0.15,-0.071875,1
3.25261e-19,0.15,-0.0708333,1
3.79471e-19,0.15,-0.0697917,1
4.33681e-19,0.15,-0.06875,1
4.20128e-19,0.15,-0.0677084,1
4.06576e-19,0.15,-0.0666667,1
4.20128e-19,0.15,-0.065625,1
4.33681e-19,0.15,-0.0645834,1
5.42101e-19,0.15,-0.0635417,1
6.50521e-19,0.15,-0.0625,1
7.04731e-19,0.15,-0.0614583,1
7.58942e-19,0.15,-0.0604167,1
6.91179e-19,0.15,-0.059375,1
6.23416e-19,0.15,-0.0583333,1
5.28549e-19,0.15,-0.0572916,1
4.33681e-19,0.15,-0.05625,1
4.87891e-19,0.15,-0.0552084,1
5.42101e-19,0.15,-0.0541667,1
5.42101e-19,0.15,-0.053125,1
5.42101e-19,0.15,-0.0520833,1
5.69206e-19,0.15,-0.0510417,1
5.96311e-19,0.15,-0.05,1
5.14996e-19,0.15,-0.0489583,1
4.33681e-19,0.15,-0.0479167,1
3.79471e-19,0.15,-0.046875,1
3.25261e-19,0.15,-0.0458333,1
3.25261e-19,0.15,-0.0447917,1
3.25261e-19,0.15,-0.04375,1
4.87891e-19,0.15,-0.0427083,1
6.50521e-19,0.15,-0.0416667,1
6.50521e-19,0.15,-0.040625,1
6.50521e-19,0.15,-0.0395833,1
6.50521e-19,0.15,-0.0385417,1
6.50521e-19,0.15,-0.0375,1
7.04731e-19,0.15,-0.0364583,1
7.58942e-19,0.15,-0.0354167,1
7.86047e-19,0.15,-0.034375,1
8.13152e-19,0.15,-0.0333333,1
7.86047e-19,0.15,-0.0322917,1
7.58942e-19,0.15,-0.03125,1
6.50521e-19,0.15,-0.0302083,1
5.42101e-19,0.15,-0.0291667,1
5.42101e-19,0.15,-0.028125,1
5.42101e-19,0.15,-0.0270833,1
5.14996e-19,0.15,-0.0260417,1
4.87891e-19,0.15,-0.025,1
5.69206e-19,0.15,-0.0239583,1
6.50521e-19,0.15,-0.0229167,1
6.50521e-19,0.15,-0.021875,1
6.50521e-19,0.15,-0.0208333,1
6.50521e-19,0.15,-0.0197917,1
6.50521e-19,0.15,-0.01875,1
6.23416e-19,0.15,-0.0177083,1
5.96311e-19,0.15,-0.0166667,1
6.23416e-19,0.15,-0.015625,1
6.50521e-19,0.15,-0.0145833,0.999998
6.50521e-19,0.15,-0.0135417,0.999998
6.50521e-19,0.15,-0.0125,0.999969
6.43745e-19,0.15,-0.0114583,0.999969
6.36969e-19,0.15,-0.0104167,0.999969
-8.13152e-20,0.15,-0.0104167,0.999498
-2.03288e-19,0.15,-0.009375,0.999498
-3.25261e-19,0.15,-0.00833333,0.988848
-3.25261e-19,0.15,-0.00729167,0.988848
-3.25261e-19,0.15,-0.00625,0.800472
-3.25261e-19,0.15,-0.00520834,0.800472
-3.25261e-19,0.15,-0.00416667,0.203929
-3.25261e-19,0.15,-0.00312498,0.203929
-3.25261e-19,0.15,-0.00208329,0.00909493
-2.43945e-19,0.15,-0.00104165,0.00909493
-1.6263e-19,0.15,1.40196e-11,8.90432e-05
-1.89735e-19,0.15,0.00104165,8.90432e-05
-2.1684e-19,0.15,0.00208329,9.90674e-06
-2.1684e-19,0.15,0.00312498,9.90674e-06
-2.1684e-19,0.15,0.00416667,4.61923e-06
-2.1684e-19,0.15,0.00520833,4.61923e-06
-2.1684e-19,0.15,0.00625,8.73137e-08
-2.03288e-19,0.15,0.00729167,8.73137e-08
-1.89735e-19,0.15,0.00833333,2.15591e-09
-2.03288e-19,0.15,0.009375,2.15591e-09
-2.1684e-19,0.15,0.0104167,1.27459e-09
-1.0842e-19,0.15,0.0114583,1.27459e-09
0,0.15,0.0125,1.40908e-09
0,0.15,0.0135417,1.40908e-09
0,0.15,0.0145833,2.26175e-09
1.35525e-20,0.15,0.015625,2.26175e-09
2.71051e-20,0.15,0.0166667,2.49504e-09
-2.03288e-19,0.15,0.0177084,2.49504e-09
-4.33681e-19,0.15,0.01875,1.85934e-09
-4.33681e-19,0.15,0.0197917,1.85934e-09
-4.33681e-19,0.15,0.0208333,1.35063e-09
-4.33681e-19,0.15,0.021875,1.35063e-09
-4.33681e-19,0.15,0.0229167,1.32005e-09
-4.74338e-19,0.15,0.0239583,1.32005e-09
-5.14996e-19,0.15,0.025,1.45928e-09
-4.74338e-19,0.15,0.0260417,1.45928e-09
-4.33681e-19,0.15,0.0270834,2.68313e-09
-4.33681e-19,0.15,0.028125,2.68313e-09
-4.33681e-19,0.15,0.0291667,5.40059e-09
-4.33681e-19,0.15,0.0302084,5.40059e-09
-4.33681e-19,0.15,0.03125,7.07094e-09
-4.33681e-19,0.15,0.0322917,7.07094e-09
-4.33681e-19,0.15,0.0333333,6.51309e-09
-5.42101e-19,0.15,0.034375,6.51309e-09
-6.50521e-19,0.15,0.0354167,3.67617e-09
-7.04731e-19,0.15,0.0364583,3.67617e-09
-7.58942e-19,0.15,0.0375,2.05708e-09
-7.58942e-19,0.15,0.0385417,2.05708e-09
-7.58942e-19,0.15,0.0395833,1.73176e-09
-6.64074e-19,0.15,0.040625,1.73176e-09
-5.69206e-19,0.15,0.0416667,2.0424e-09
-6.09864e-19,0.15,0.0427084,2.0424e-09
-6.50521e-19,0.15,0.04375,2.29852e-09
-6.50521e-19,0.15,0.0447917,2.29852e-09
-6.50521e-19,0.15,0.0458333,2.72361e-09
-7.58942e-19,0.15,0.046875,2.72361e-09
-8.67362e-19,0.15,0.0479167,3.66481e-09
-7.18284e-19,0.15,0.0489583,3.66481e-09
-5.69206e-19,0.15,0.05,3.77526e-09
-6.64074e-19,0.15,0.0510417,3.77526e-09
-7.58942e-19,0.15,0.0520833,3.3888e-09
-8.13152e-19,0.15,0.053125,3.3888e-09
-8.67362e-19,0.15,0.0541667,2.78069e-09
-1.02999e-18,0.15,0.0552084,2.78069e-09
-1.19262e-18,0.15,0.0562501,2.10457e-09
-1.13841e-18,0.15,0.0572917,2.10457e-09
-1.0842e-18,0.15,0.0583334,1.99817e-09
-1.13841e-18,0.15,0.0593751,1.99817e-09
-1.19262e-18,0.15,0.0604167,2.2051e-09
-1.24683e-18,0.15,0.0614584,2.2051e-09
-1.30104e-18,0.15,0.0625001,2.88122e-09
-1.30104e-18,0.15,0.0635418,2.88122e-09
-1.30104e-18,0.15,0.0645835,3.12073e-09
-1.43657e-18,0.15,0.0656252,3.12073e-09
-1.57209e-18,0.15,0.0666668,2.75615e-09
-1.21973e-18,0.15,0.0677085,2.75615e-09
-8.67362e-19,0.15,0.0687502,2.3871e-09
-8.19928e-19,0.15,0.0697919,2.3871e-09
-7.72494e-19,0.15,0.0708336,2.3871e-09
-1.35525e-19,0.15,0.0708336,2.32819e-09
2.03288e-19,0.15,0.0718754,2.32819e-09
5.42101e-19,0.15,0.0729171,2.38678e-09
5.69206e-19,0.15,0.0739588,2.38678e-09
5.96311e-19,0.15,0.0750004,2.42982e-09
6.77626e-19,0.15,0.0760422,2.42982e-09
7.58942e-19,0.15,0.077084,2.41977e-09
7.58942e-19,0.15,0.0781256,2.41977e-09
7.58942e-19,0.15,0.0791673,2.35914e-09
6.77626e-19,0.15,0.0812508,2.35914e-09
5.96311e-19,0.15,0.0833343,2.27826e-09
5.14996e-19,0.15,0.0875017,2.27826e-09
4.33681e-19,0.15,0.0916692,2.23752e-09
3.52366e-19,0.15,0.0958366,2.23752e-09
2.71051e-19,0.15,0.100004,2.21239e-09
-4.06576e-19,0.15,0.108342,2.21239e-09
-1.0842e-18,0.15,0.11668,2.23478e-09
-8.67362e-19,0.15,0.125019,2.23478e-09
-6.50521e-19,0.15,0.133359,2.53542e-09
