x,y,z,alpha.water
0,0.15,-0.125,1
3.11708e-19,0.15,-0.120833,1
-1.6263e-19,0.15,-0.116667,1
6.23416e-19,0.15,-0.116667,1
-2.98156e-19,0.15,-0.1125,1
-4.33681e-19,0.15,-0.108333,1
-3.25261e-19,0.15,-0.104167,1
-2.1684e-19,0.15,-0.1,1
-1.0842e-19,0.15,-0.0958333,1
0,0.15,-0.0916667,1
-2.1684e-19,0.15,-0.0875,1
-4.33681e-19,0.15,-0.0833333,1
-3.04932e-19,0.15,-0.08125,1
-2.1684e-19,0.15,-0.0791667,1
-1.76183e-19,0.15,-0.0791667,1
-3.25261e-19,0.15,-0.0781251,1
-4.33681e-19,0.15,-0.0770835,1
-5.82759e-19,0.15,-0.0760417,1
-7.31836e-19,0.15,-0.075,1
-6.91179e-19,0.15,-0.0739584,1
-6.50521e-19,0.15,-0.0729167,1
-8.67362e-19,0.15,-0.071875,1
-1.0842e-18,0.15,-0.0708333,1
-9.75782e-19,0.15,-0.0697917,1
-8.67362e-19,0.15,-0.06875,1
-8.40257e-19,0.15,-0.0677084,1
-8.13152e-19,0.15,-0.0666667,1
-7.86047e-19,0.15,-0.065625,1
-7.58942e-19,0.15,-0.0645833,1
-8.13152e-19,0.15,-0.0635417,1
-8.67362e-19,0.15,-0.0625,1
-8.13152e-19,0.15,-0.0614583,1
-7.58942e-19,0.15,-0.0604167,1
-1.07065e-18,0.15,-0.059375,1
-1.38236e-18,0.15,-0.0583333,1
-1.39591e-18,0.15,-0.0572916,1
-1.40946e-18,0.15,-0.05625,1
-1.40946e-18,0.15,-0.0552083,1
-1.40946e-18,0.15,-0.0541667,1
-1.35525e-18,0.15,-0.053125,1
-1.30104e-18,0.15,-0.0520834,1
-1.37558e-18,0.15,-0.0510417,1
-1.45012e-18,0.15,-0.05,1
-1.32137e-18,0.15,-0.0489583,1
-1.19262e-18,0.15,-0.0479167,1
-1.46367e-18,0.15,-0.046875,1
-1.73472e-18,0.15,-0.0458333,1
-1.35525e-18,0.15,-0.0447916,1
-9.75782e-19,0.15,-0.04375,1
-8.60585e-19,0.15,-0.0427083,1
-7.45389e-19,0.15,-0.0416667,1
-6.43745e-19,0.15,-0.040625,1
-5.42101e-19,0.15,-0.0395834,1
-5.96311e-19,0.15,-0.0385417,1
-6.50521e-19,0.15,-0.0375,1
-5.42101e-19,0.15,-0.0364583,1
-4.33681e-19,0.15,-0.0354166,0.999999
-4.81115e-19,0.15,-0.034375,0.999999
-5.28549e-19,0.15,-0.0333333,1
-5.35325e-19,0.15,-0.0322916,1
-5.42101e-19,0.15,-0.03125,1
-5.96311e-19,0.15,-0.0302083,1
-6.50521e-19,0.15,-0.0291667,1
-5.42101e-19,0.15,-0.028125,1
-4.33681e-19,0.15,-0.0270834,1
-3.79471e-19,0.15,-0.0260417,1
-3.25261e-19,0.15,-0.025,1
-1.0842e-19,0.15,-0.0239583,1
1.0842e-19,0.15,-0.0229166,1
1.0842e-19,0.15,-0.0218749,1
1.0842e-19,0.15,-0.0208333,1
1.0842e-19,0.15,-0.0197916,1
1.0842e-19,0.15,-0.01875,1
1.76183e-19,0.15,-0.0177083,1
2.43945e-19,0.15,-0.0166667,1
2.84603e-19,0.15,-0.015625,1
3.25261e-19,0.15,-0.0145834,1
3.04932e-19,0.15,-0.0135417,1
2.84603e-19,0.15,-0.0125,1
-5.42101e-20,0.15,-0.0125,0.999998
-2.71051e-20,0.15,-0.0114583,0.999998
0,0.15,-0.0104166,0.999966
6.09864e-20,0.15,-0.00937496,0.999966
1.21973e-19,0.15,-0.00833333,0.998585
1.15196e-19,0.15,-0.00729166,0.998585
1.0842e-19,0.15,-0.00625,0.948721
5.42101e-20,0.15,-0.00520833,0.948721
0,0.15,-0.00416667,0.563279
5.42101e-20,0.15,-0.00312499,0.563279
1.0842e-19,0.15,-0.00208331,0.0788712
1.01644e-19,0.15,-0.00104166,0.0788712
9.48677e-20,0.15,1.46392e-11,0.00251762
-6.77626e-21,0.15,0.00104166,0.00251762
-1.0842e-19,0.15,0.00208332,6.37611e-06
-5.42101e-20,0.15,0.00312499,6.37611e-06
0,0.15,0.00416667,1.83325e-06
0,0.15,0.00520833,1.83325e-06
0,0.15,0.00625,1.42319e-07
5.42101e-20,0.15,0.00729167,1.42319e-07
1.0842e-19,0.15,0.00833333,5.18035e-09
5.42101e-20,0.15,0.00937496,5.18035e-09
0,0.15,0.0104166,1.54722e-09
0,0.15,0.0114583,1.54722e-09
0,0.15,0.0125,2.02921e-09
0,0.15,0.0135417,2.02921e-09
0,0.15,0.0145834,3.21266e-09
5.42101e-20,0.15,0.015625,3.21266e-09
1.0842e-19,0.15,0.0166667,3.4627e-09
1.0842e-19,0.15,0.0177083,3.4627e-09
1.0842e-19,0.15,0.01875,3.33806e-09
1.6263e-19,0.15,0.0197916,3.33806e-09
2.1684e-19,0.15,0.0208333,2.79126e-09
1.0842e-19,0.15,0.021875,2.79126e-09
0,0.15,0.0229167,3.54362e-09
-3.38813e-20,0.15,0.0239583,3.54362e-09
-6.77626e-20,0.15,0.025,3.72263e-09
2.03288e-20,0.15,0.0260417,3.72263e-09
1.0842e-19,0.15,0.0270834,2.87549e-09
5.42101e-20,0.15,0.028125,2.87549e-09
0,0.15,0.0291667,1.77249e-09
0,0.15,0.0302083,1.77249e-09
0,0.15,0.03125,1.72488e-09
-1.76183e-19,0.15,0.0322916,1.72488e-09
-3.52366e-19,0.15,0.0333333,2.17125e-09
-2.84603e-19,0.15,0.034375,2.17125e-09
-2.1684e-19,0.15,0.0354166,2.49563e-09
-2.1684e-19,0.15,0.0364583,2.49563e-09
-2.1684e-19,0.15,0.0375,2.6197e-09
-5.42101e-20,0.15,0.0385417,2.6197e-09
1.0842e-19,0.15,0.0395834,2.73807e-09
1.35525e-19,0.15,0.040625,2.73807e-09
1.6263e-19,0.15,0.0416667,2.57859e-09
2.98156e-19,0.15,0.0427084,2.57859e-09
4.33681e-19,0.15,0.04375,2.18407e-09
5.42101e-19,0.15,0.0447917,2.18407e-09
6.50521e-19,0.15,0.0458333,2.05062e-09
7.04731e-19,0.15,0.046875,2.05062e-09
7.58942e-19,0.15,0.0479166,2.11736e-09
6.91179e-19,0.15,0.0489583,2.11736e-09
6.23416e-19,0.15,0.05,2.14535e-09
6.36969e-19,0.15,0.0510417,2.14535e-09
6.50521e-19,0.15,0.0520834,2.12449e-09
8.67362e-19,0.15,0.0531251,2.12449e-09
1.0842e-18,0.15,0.0541667,2.11123e-09
9.75782e-19,0.15,0.0552084,2.11123e-09
8.67362e-19,0.15,0.0562501,2.12266e-09
8.67362e-19,0.15,0.0572918,2.12266e-09
8.67362e-19,0.15,0.0583334,2.31418e-09
9.75782e-19,0.15,0.0593751,2.31418e-09
1.0842e-18,0.15,0.0604167,2.80068e-09
1.0842e-18,0.15,0.0614584,2.80068e-09
1.0842e-18,0.15,0.0625001,3.1315e-09
1.19262e-18,0.15,0.0635418,3.1315e-09
1.30104e-18,0.15,0.0645835,3.20568e-09
1.13841e-18,0.15,0.0656252,3.20568e-09
9.75782e-19,0.15,0.0666668,2.90453e-09
1.0842e-18,0.15,0.0677085,2.90453e-09
1.19262e-18,0.15,0.0687503,2.78407e-09
1.13841e-18,0.15,0.0697919,2.78407e-09
1.0842e-18,0.15,0.0708336,3.01879e-09
1.03677e-18,0.15,0.0718754,3.01879e-09
9.89334e-19,0.15,0.0729171,3.01879e-09
5.42101e-20,0.15,0.0729171,3.2977e-09
-2.23617e-19,0.15,0.0739588,3.2977e-09
-5.01444e-19,0.15,0.0750004,3.41259e-09
-6.84403e-19,0.15,0.0760423,3.41259e-09
-8.67362e-19,0.15,0.0770841,3.43847e-09
-7.58942e-19,0.15,0.0781257,3.43847e-09
-6.50521e-19,0.15,0.0791673,3.42272e-09
-4.33681e-19,0.15,0.0812508,3.42272e-09
-2.1684e-19,0.15,0.0833343,3.35621e-09
-2.98156e-19,0.15,0.0875017,3.35621e-09
-3.79471e-19,0.15,0.0916692,3.38579e-09
-5.14996e-19,0.15,0.0958366,3.38579e-09
-6.50521e-19,0.15,0.100004,3.15808e-09
3.25261e-19,0.15,0.108342,3.15808e-09
1.30104e-18,0.15,0.11668,3.15593e-09
1.30104e-18,0.15,0.125018,3.15593e-09
1.30104e-18,0.15,0.133357,3.28993e-09
