x,y,z,alpha.water
0.125,0,-0.125,1.00001
0.125,-6.75264e-19,-0.120833,1.00001
0.125,0,-0.116667,1.00001
0.125,-1.35053e-18,-0.116667,1.00001
0.125,-5.50838e-19,-0.1125,1.00001
0.125,-1.10168e-18,-0.108333,1.00001
0.125,-1.10168e-18,-0.104166,1.00001
0.125,-1.10168e-18,-0.1,1.00001
0.125,-1.10168e-18,-0.0958333,1.00001
0.125,-1.10168e-18,-0.0916667,1.00001
0.125,-1.10168e-18,-0.0875,1.00001
0.125,-1.10168e-18,-0.0833333,1.00001
0.125,-1.10168e-18,-0.08125,1.00001
0.125,-1.10168e-18,-0.0791667,1.00001
0.125,-1.10169e-18,-0.0781251,1.00001
0.125,-1.10169e-18,-0.0770835,1.00001
0.125,-1.10169e-18,-0.0760417,1.00001
0.125,-1.10169e-18,-0.075,1.00001
0.125,-1.10169e-18,-0.0739583,1.00001
0.125,-1.10169e-18,-0.0729167,1.00001
0.125,-1.10169e-18,-0.071875,1.00001
0.125,-1.10169e-18,-0.0708333,1.00001
0.125,-1.10169e-18,-0.0697917,1.00001
0.125,-1.10169e-18,-0.0687501,1.00001
0.125,-1.10169e-18,-0.0677084,1.00001
0.125,-1.10169e-18,-0.0666667,1.00001
0.125,-1.10169e-18,-0.065625,1.00001
0.125,-1.10169e-18,-0.0645834,1.00001
0.125,-1.10169e-18,-0.0635417,1.00001
0.125,-1.10169e-18,-0.0625,1.00001
0.125,-1.10169e-18,-0.0614583,1.00001
0.125,-1.10169e-18,-0.0604167,1.00001
0.125,-1.10169e-18,-0.059375,1.00001
0.125,-1.10169e-18,-0.0583333,1.00001
0.125,-1.10169e-18,-0.0572916,1.00001
0.125,-1.10169e-18,-0.05625,1.00001
0.125,-1.10169e-18,-0.0552083,1.00001
0.125,-1.10169e-18,-0.0541667,1.00001
0.125,-1.10169e-18,-0.053125,1.00001
0.125,-1.10169e-18,-0.0520834,1.00001
0.125,-1.10169e-18,-0.0510417,1.00001
0.125,-1.10169e-18,-0.05,1.00001
0.125,-1.10169e-18,-0.0489583,1.00001
0.125,-1.10169e-18,-0.0479166,1.00001
0.125,-1.10169e-18,-0.046875,1.00001
0.125,-1.10169e-18,-0.0458333,1.00001
0.125,-1.10169e-18,-0.0447916,1.00001
0.125,-1.10169e-18,-0.04375,1.00001
0.125,-1.10169e-18,-0.0427083,1.00001
0.125,-1.10169e-18,-0.0416667,1.00001
0.125,-1.10169e-18,-0.040625,1.00001
0.125,-1.10169e-18,-0.0395834,1.00001
0.125,-1.10169e-18,-0.0385417,1.00001
0.125,-1.10169e-18,-0.0375,1.00001
0.125,-1.10169e-18,-0.0364583,1.00001
0.125,-1.10169e-18,-0.0354167,1.00001
0.125,-1.10169e-18,-0.034375,1.00001
0.125,2.58494e-26,-0.0333333,1.00001
0.125,-1.10169e-18,-0.0333333,1.00001
0.125,2.01987e-19,-0.0322916,1.00001
0.125,4.03975e-19,-0.03125,1.00001
0.125,4.03975e-19,-0.0302083,1.00001
0.125,4.03975e-19,-0.0291667,1.00001
0.125,4.03975e-19,-0.028125,1.00001
0.125,4.03975e-19,-0.0270834,1.00001
0.125,4.03975e-19,-0.0260417,1.00001
0.125,4.03975e-19,-0.025,1.00001
0.125,4.03975e-19,-0.0239583,1.00001
0.125,4.03975e-19,-0.0229167,1.00001
0.125,4.03975e-19,-0.021875,1.00001
0.125,4.03975e-19,-0.0208333,1.00001
0.125,4.03975e-19,-0.0197916,1.00001
0.125,4.03975e-19,-0.01875,1.00001
0.125,4.03975e-19,-0.0177083,1.00001
0.125,4.03975e-19,-0.0166667,1.00001
0.125,4.03975e-19,-0.015625,1.00001
0.125,4.03975e-19,-0.0145833,1.00001
0.125,4.03975e-19,-0.0135417,1.00001
0.125,4.03975e-19,-0.0125,1
0.125,4.03975e-19,-0.0114583,1
0.125,4.03975e-19,-0.0104166,1
0.125,4.03975e-19,-0.00937499,1
0.125,4.03975e-19,-0.00833333,1
0.125,4.03975e-19,-0.00729166,1
0.125,4.03975e-19,-0.00625,1
0.125,4.03975e-19,-0.00520833,1
0.125,4.03975e-19,-0.00416667,1
0.125,4.03975e-19,-0.003125,1
0.125,4.03975e-19,-0.00208333,1
0.125,4.03975e-19,-0.00104166,1
0.125,4.03975e-19,6.14435e-11,1
0.125,4.03975e-19,0.00104167,1
0.125,4.03975e-19,0.00208334,1
0.125,4.03975e-19,0.003125,1
0.125,4.03975e-19,0.00416667,1
0.125,0,0.00416667,1.00001
0.125,-8.44382e-20,0.00520833,1.00001
0.125,-1.68876e-19,0.00625,1.00001
0.125,-1.68876e-19,0.00729166,1.00001
0.125,-1.68876e-19,0.00833333,1
0.125,-1.68876e-19,0.00937499,1
0.125,-1.68876e-19,0.0104166,1
0.125,-1.68876e-19,0.0114583,1
0.125,-1.68876e-19,0.0125,1
0.125,-1.68876e-19,0.0135417,1
0.125,-1.68876e-19,0.0145833,1
0.125,-1.68876e-19,0.015625,1
0.125,-1.68876e-19,0.0166667,1
0.125,-1.68876e-19,0.0177083,1
0.125,-1.68876e-19,0.01875,1
0.125,-1.68876e-19,0.0197916,1
0.125,-1.68876e-19,0.0208333,0.999985
0.125,-1.68876e-19,0.021875,0.999985
0.125,-1.68876e-19,0.0229167,0.999773
0.125,-1.68876e-19,0.0239583,0.999773
0.125,-1.68876e-19,0.025,0.995819
0.125,-1.68876e-19,0.0260417,0.995819
0.125,-1.68876e-19,0.0270834,0.909892
0.125,-1.68876e-19,0.028125,0.909892
0.125,-1.68876e-19,0.0291667,0.45537
0.125,-1.68876e-19,0.0302083,0.45537
0.125,-1.68876e-19,0.03125,0.0637068
0.125,-1.68876e-19,0.0322916,0.0637068
0.125,-1.68876e-19,0.0333333,0.00270019
0.125,-1.68876e-19,0.034375,0.00270019
0.125,-1.68876e-19,0.0354167,0.000172573
0.125,-1.68876e-19,0.0364583,0.000172573
0.125,-1.68876e-19,0.0375,0.000172573
0.125,0,0.0375,1.11683e-05
0.125,-1.29644e-19,0.0385417,1.11683e-05
0.125,-2.59289e-19,0.0395834,2.44874e-06
0.125,-2.59289e-19,0.0406251,2.44874e-06
0.125,-2.59289e-19,0.0416667,6.52061e-07
0.125,-2.59289e-19,0.0427084,6.52061e-07
0.125,-2.59289e-19,0.0437501,1.17952e-07
0.125,-2.59289e-19,0.0447917,1.17952e-07
0.125,-2.59289e-19,0.0458334,3.9134e-08
0.125,-2.59289e-19,0.0468751,3.9134e-08
0.125,-2.59289e-19,0.0479168,1.1903e-08
0.125,-2.59289e-19,0.0489585,1.1903e-08
0.125,-2.59289e-19,0.0500001,3.43202e-09
0.125,-2.59289e-19,0.0510418,3.43202e-09
0.125,-2.59289e-19,0.0520835,1.62214e-09
0.125,-2.59289e-19,0.0531252,1.62214e-09
0.125,-2.59289e-19,0.0541668,1.11559e-09
0.125,-2.59289e-19,0.0552085,1.11559e-09
0.125,-2.59289e-19,0.0562503,8.52227e-10
0.125,-2.59289e-19,0.0572919,8.52227e-10
0.125,-2.59289e-19,0.0583336,7.18454e-10
0.125,-2.59289e-19,0.0593753,7.18454e-10
0.125,-2.59289e-19,0.0604171,6.68705e-10
0.125,-2.59289e-19,0.0614588,6.68705e-10
0.125,-2.59289e-19,0.0625005,6.67558e-10
0.125,-2.59289e-19,0.0635422,6.67558e-10
0.125,-2.59289e-19,0.064584,6.65987e-10
0.125,-2.59289e-19,0.0656257,6.65987e-10
0.125,-2.59289e-19,0.0666674,3.13149e-09
0.125,-2.59289e-19,0.0677092,3.13149e-09
0.125,-2.59289e-19,0.0687511,3.08947e-08
0.125,-2.59289e-19,0.0697928,3.08947e-08
0.125,-2.59289e-19,0.0708345,3.96866e-08
0.125,-2.59289e-19,0.0718763,3.96866e-08
0.125,-2.59289e-19,0.0729182,1.45078e-08
0.125,-2.59289e-19,0.0739599,1.45078e-08
0.125,-2.59289e-19,0.0750017,1.70965e-09
0.125,-2.59289e-19,0.0750492,1.70965e-09
0.125,-2.59289e-19,0.0750967,1.36196e-09
0.125,-2.59289e-19,0.0760912,1.36196e-09
0.125,-2.59289e-19,0.0770857,9.45554e-10
0.125,-2.59289e-19,0.0781275,9.45554e-10
0.125,-2.59289e-19,0.0791693,9.57078e-10
0.125,-2.59289e-19,0.0812533,9.57078e-10
0.125,-2.59289e-19,0.0833373,1.98253e-08
0.125,-2.59288e-19,0.0875076,1.98253e-08
0.125,-2.59288e-19,0.091678,6.62248e-08
0.125,-2.59288e-19,0.0958497,6.62248e-08
0.125,-2.59288e-19,0.100021,7.50612e-08
0.125,-2.59285e-19,0.108375,7.50612e-08
0.125,-2.59283e-19,0.116729,7.50612e-08
0.125,0,0.116729,6.25844e-08
0.125,-1.04951e-18,0.125087,6.25844e-08
0.125,-2.09902e-18,0.133446,2.27201e-08
