x,y,z,alpha.water
0,0.125,-0.125,1
-3.25261e-19,0.125,-0.120833,1
1.02999e-18,0.125,-0.116667,1
-6.50521e-19,0.125,-0.116667,1
1.49078e-18,0.125,-0.1125,1
1.95156e-18,0.125,-0.108333,1
1.95156e-18,0.125,-0.104167,1
1.95156e-18,0.125,-0.1,1
1.73472e-18,0.125,-0.0958334,1
1.51788e-18,0.125,-0.0916667,1
1.30104e-18,0.125,-0.0875,1
1.0842e-18,0.125,-0.0833333,1
1.11131e-18,0.125,-0.08125,1
1.13841e-18,0.125,-0.0791667,1
1.32815e-18,0.125,-0.0781251,1
1.51788e-18,0.125,-0.0770835,1
1.35525e-18,0.125,-0.0760418,1
1.19262e-18,0.125,-0.075,1
1.35525e-18,0.125,-0.0739584,1
1.51788e-18,0.125,-0.0729167,1
1.51788e-18,0.125,-0.071875,1
1.51788e-18,0.125,-0.0708333,1
1.35525e-18,0.125,-0.0697917,1
1.19262e-18,0.125,-0.0687501,1
1.24683e-18,0.125,-0.0677084,1
1.30104e-18,0.125,-0.0666667,1
1.18076e-18,0.125,-0.065625,1
-6.09864e-20,0.125,-0.0645834,1
1.06049e-18,0.125,-0.0645834,1
-8.47033e-20,0.125,-0.0635417,1
-1.0842e-19,0.125,-0.0625,1
-1.0842e-19,0.125,-0.0614583,1
-1.0842e-19,0.125,-0.0604167,1
-1.0842e-19,0.125,-0.059375,1
-1.0842e-19,0.125,-0.0583333,1
-4.87891e-19,0.125,-0.0572916,1
-8.67362e-19,0.125,-0.05625,1
-8.50421e-19,0.125,-0.0552083,1
-8.3348e-19,0.125,-0.0541667,1
-5.79371e-19,0.125,-0.053125,1
-3.25261e-19,0.125,-0.0520834,1
-3.25261e-19,0.125,-0.0510417,1
-3.25261e-19,0.125,-0.05,1
-2.71051e-19,0.125,-0.0489583,1
-2.1684e-19,0.125,-0.0479167,1
-3.25261e-19,0.125,-0.046875,1
-4.33681e-19,0.125,-0.0458333,1
-3.25261e-19,0.125,-0.0447917,1
-2.1684e-19,0.125,-0.04375,1
-1.0842e-19,0.125,-0.0427084,1
0,0.125,-0.0416667,1
1.0842e-19,0.125,-0.040625,1
2.1684e-19,0.125,-0.0395834,1
2.1684e-19,0.125,-0.0385417,1
2.1684e-19,0.125,-0.0375,1
4.87891e-19,0.125,-0.0364583,1
7.58942e-19,0.125,-0.0354167,1
5.42101e-19,0.125,-0.034375,1
3.25261e-19,0.125,-0.0333333,1
2.1684e-19,0.125,-0.0322917,1
1.0842e-19,0.125,-0.03125,1
1.0842e-19,0.125,-0.0302084,1
1.0842e-19,0.125,-0.0291667,1
5.42101e-20,0.125,-0.028125,1
0,0.125,-0.0270834,1
-1.0842e-19,0.125,-0.0260417,1
-2.1684e-19,0.125,-0.025,1
0,0.125,-0.0239584,1
2.1684e-19,0.125,-0.0229167,0.999999
5.42101e-20,0.125,-0.021875,0.999999
-1.0842e-19,0.125,-0.0208333,0.999999
0,0.125,-0.0197917,0.999999
1.0842e-19,0.125,-0.01875,0.999999
1.6263e-19,0.125,-0.0177084,0.999999
2.1684e-19,0.125,-0.0166667,1
2.1684e-19,0.125,-0.015625,1
2.1684e-19,0.125,-0.0145834,0.999999
2.91379e-19,0.125,-0.0135417,0.999999
3.65918e-19,0.125,-0.0125,0.999993
2.83756e-19,0.125,-0.0114584,0.999993
2.01594e-19,0.125,-0.0104167,0.999993
-2.37169e-20,0.125,-0.0104167,0.999937
4.23516e-20,0.125,-0.00937501,0.999937
1.0842e-19,0.125,-0.00833333,0.999433
1.6263e-19,0.125,-0.00729166,0.999433
2.1684e-19,0.125,-0.00625,0.994434
1.6263e-19,0.125,-0.00520833,0.994434
1.0842e-19,0.125,-0.00416667,0.942456
-5.42101e-20,0.125,-0.003125,0.942456
-2.1684e-19,0.125,-0.00208333,0.572587
-3.25261e-19,0.125,-0.00104166,0.572587
-4.33681e-19,0.125,4.49279e-11,0.126259
-7.58942e-19,0.125,0.00104167,0.126259
-1.0842e-18,0.125,0.00208334,0.0152299
-1.01983e-18,0.125,0.003125,0.0152299
-9.55453e-19,0.125,0.00416667,0.000485251
-1.01983e-18,0.125,0.00520833,0.000485251
-1.0842e-18,0.125,0.00625,1.85429e-05
-1.02999e-18,0.125,0.00729166,1.85429e-05
-9.75782e-19,0.125,0.00833333,2.33923e-06
-1.0842e-18,0.125,0.00937501,2.33923e-06
-1.19262e-18,0.125,0.0104167,3.52672e-07
-1.02999e-18,0.125,0.0114583,3.52672e-07
-8.67362e-19,0.125,0.0125,4.05837e-08
-9.21572e-19,0.125,0.0135417,4.05837e-08
-9.75782e-19,0.125,0.0145834,2.84487e-09
-9.21572e-19,0.125,0.015625,2.84487e-09
-8.67362e-19,0.125,0.0166667,2.02923e-10
-7.58942e-19,0.125,0.0177083,2.02923e-10
-6.50521e-19,0.125,0.01875,2.41943e-11
-5.75982e-19,0.125,0.0197916,2.41943e-11
-5.01444e-19,0.125,0.0208333,6.79292e-12
-6.30193e-19,0.125,0.021875,6.79292e-12
-7.58942e-19,0.125,0.0229167,3.66655e-13
-7.58942e-19,0.125,0.0239583,3.66655e-13
-7.58942e-19,0.125,0.025,2.49707e-13
-7.04731e-19,0.125,0.0260417,2.49707e-13
-6.50521e-19,0.125,0.0270834,1.27992e-13
-7.04731e-19,0.125,0.028125,1.27992e-13
-7.58942e-19,0.125,0.0291667,7.69801e-14
-5.96311e-19,0.125,0.0302083,7.69801e-14
-4.33681e-19,0.125,0.03125,5.15051e-14
-4.87891e-19,0.125,0.0322916,5.15051e-14
-5.42101e-19,0.125,0.0333333,3.20764e-14
-6.50521e-19,0.125,0.034375,3.20764e-14
-7.58942e-19,0.125,0.0354167,1.77019e-14
-8.28398e-19,0.125,0.0364583,1.77019e-14
-8.97855e-19,0.125,0.0375,9.00317e-15
-9.91029e-19,0.125,0.0385417,9.00317e-15
-1.0842e-18,0.125,0.0395834,4.46759e-15
-1.02999e-18,0.125,0.040625,4.46759e-15
-9.75782e-19,0.125,0.0416667,2.26062e-15
-9.21572e-19,0.125,0.0427084,2.26062e-15
-8.67362e-19,0.125,0.0437501,1.2138e-15
-9.21572e-19,0.125,0.0447917,1.2138e-15
-9.75782e-19,0.125,0.0458334,7.03426e-16
-6.50521e-19,0.125,0.0468751,7.03426e-16
-3.25261e-19,0.125,0.0479168,4.26235e-16
-4.33681e-19,0.125,0.0489584,4.26235e-16
-5.42101e-19,0.125,0.0500001,2.5919e-16
-6.50521e-19,0.125,0.0510418,2.5919e-16
-7.58942e-19,0.125,0.0520835,1.54723e-16
-8.52115e-19,0.125,0.0531251,1.54723e-16
-9.45289e-19,0.125,0.0541668,9.33251e-17
-8.52115e-19,0.125,0.0552085,9.33251e-17
-7.58942e-19,0.125,0.0562502,5.66947e-17
-5.42101e-19,0.125,0.0572919,5.66947e-17
-3.25261e-19,0.125,0.0583335,3.39303e-17
-3.79471e-19,0.125,0.0593752,3.39303e-17
-4.33681e-19,0.125,0.0604169,1.9859e-17
-4.13352e-19,0.125,0.0614586,1.9859e-17
-3.93023e-19,0.125,0.0625003,1.1453e-17
-5.75982e-19,0.125,0.0635421,1.1453e-17
-7.58942e-19,0.125,0.0645839,6.6759e-18
-8.13152e-19,0.125,0.0656256,6.6759e-18
-8.67362e-19,0.125,0.0666672,4.09437e-18
-9.75782e-19,0.125,0.067709,4.09437e-18
-1.0842e-18,0.125,0.0687508,2.75979e-18
-9.75782e-19,0.125,0.0697925,2.75979e-18
-8.67362e-19,0.125,0.0708341,2.09097e-18
-8.13152e-19,0.125,0.071876,2.09097e-18
-7.58942e-19,0.125,0.0729178,1.7479e-18
-7.04731e-19,0.125,0.0739595,1.7479e-18
-6.50521e-19,0.125,0.0750012,1.56818e-18
-7.14896e-19,0.125,0.0760432,1.56818e-18
-2.03288e-19,0.125,0.0770852,1.49807e-18
-7.7927e-19,0.125,0.0770852,1.56818e-18
-4.74338e-20,0.125,0.0781269,1.49807e-18
1.0842e-19,0.125,0.0791685,3.58427e-18
3.25261e-19,0.125,0.0812523,3.58427e-18
5.42101e-19,0.125,0.0833361,1.6826e-17
4.87891e-19,0.125,0.0875053,1.6826e-17
4.33681e-19,0.125,0.0916745,5.34962e-17
5.42101e-19,0.125,0.0958435,5.34962e-17
6.50521e-19,0.125,0.100012,2.16518e-16
1.13841e-18,0.125,0.108363,2.16518e-16
1.6263e-18,0.125,0.116713,1.28959e-16
1.89735e-18,0.125,0.125067,1.28959e-16
2.1684e-18,0.125,0.13342,2.3844e-17
