x,y,z,alpha.water
0.125,0,-0.125,1.00001
0.125,1.60606e-19,-0.120833,1.00001
0.125,3.30872e-24,-0.116667,1.00001
0.125,3.21212e-19,-0.116667,1.00001
0.125,2.97593e-19,-0.1125,1.00001
0.125,5.95183e-19,-0.108333,1.00001
0.125,5.95182e-19,-0.104166,1.00001
0.125,5.95181e-19,-0.1,1.00001
0.125,5.95179e-19,-0.0958333,1.00001
0.125,5.95176e-19,-0.0916667,1.00001
0.125,5.95176e-19,-0.0875,1.00001
0.125,5.95176e-19,-0.0833333,1.00001
0.125,5.95177e-19,-0.08125,1.00001
0.125,5.95177e-19,-0.0791667,1.00001
0.125,5.95176e-19,-0.0781251,1.00001
0.125,5.95175e-19,-0.0770835,1.00001
0.125,5.95174e-19,-0.0760417,1.00001
0.125,5.95173e-19,-0.075,1.00001
0.125,5.95175e-19,-0.0739583,1.00001
0.125,5.95178e-19,-0.0729167,1.00001
0.125,5.95177e-19,-0.071875,1.00001
0.125,5.95175e-19,-0.0708333,1.00001
0.125,5.95176e-19,-0.0697917,1.00001
0.125,5.95177e-19,-0.0687501,1.00001
0.125,5.95177e-19,-0.0677084,1.00001
0.125,5.95176e-19,-0.0666667,1.00001
0.125,5.95177e-19,-0.065625,1.00001
0.125,5.95177e-19,-0.0645834,1.00001
0.125,5.95177e-19,-0.0635417,1.00001
0.125,5.95177e-19,-0.0625,1.00001
0.125,5.95176e-19,-0.0614583,1.00001
0.125,5.95176e-19,-0.0604167,1.00001
0.125,5.95176e-19,-0.059375,1.00001
0.125,5.95175e-19,-0.0583333,1.00001
0.125,5.95176e-19,-0.0572916,1.00001
0.125,5.95176e-19,-0.05625,1.00001
0.125,5.95176e-19,-0.0552083,1.00001
0.125,5.95176e-19,-0.0541667,1.00001
0.125,5.95175e-19,-0.053125,1.00001
0.125,5.95175e-19,-0.0520834,1.00001
0.125,5.95175e-19,-0.0510417,1.00001
0.125,5.95175e-19,-0.05,1.00001
0.125,5.95175e-19,-0.0489583,1.00001
0.125,5.95175e-19,-0.0479166,1.00001
0.125,5.95175e-19,-0.046875,1.00001
0.125,5.95175e-19,-0.0458333,1.00001
0.125,5.95175e-19,-0.0447916,1.00001
0.125,5.95175e-19,-0.04375,1.00001
0.125,5.95175e-19,-0.0427083,1.00001
0.125,5.95175e-19,-0.0416667,1.00001
0.125,5.95175e-19,-0.040625,1.00001
0.125,5.95175e-19,-0.0395834,1.00001
0.125,5.95175e-19,-0.0385417,1.00001
0.125,5.95175e-19,-0.0375,1.00001
0.125,5.95175e-19,-0.0364583,1.00001
0.125,5.95175e-19,-0.0354167,1.00001
0.125,5.95175e-19,-0.034375,1.00001
0.125,2.58494e-26,-0.0333333,1.00001
0.125,5.95175e-19,-0.0333333,1.00001
0.125,-1.47309e-19,-0.0322917,1.00001
0.125,-2.94617e-19,-0.03125,1.00001
0.125,-2.94617e-19,-0.0302084,1.00001
0.125,-2.94617e-19,-0.0291667,1
0.125,-2.94617e-19,-0.0281251,1
0.125,-2.94617e-19,-0.0270834,1
0.125,-2.94617e-19,-0.0260417,1
0.125,-2.94617e-19,-0.025,1
0.125,-2.94617e-19,-0.0239584,1
0.125,-2.94617e-19,-0.0229167,1
0.125,-2.94617e-19,-0.021875,1
0.125,-2.94617e-19,-0.0208333,1
0.125,-2.94617e-19,-0.0197917,1
0.125,-2.94617e-19,-0.01875,1
0.125,-2.94617e-19,-0.0177083,1
0.125,-2.94617e-19,-0.0166667,1
0.125,-2.94617e-19,-0.015625,1
0.125,-2.94617e-19,-0.0145834,1
0.125,-2.94617e-19,-0.0135417,1
0.125,-2.94617e-19,-0.0125,1
0.125,-2.94617e-19,-0.0114583,1
0.125,-2.94617e-19,-0.0104167,1
0.125,-2.94617e-19,-0.009375,1
0.125,-2.94617e-19,-0.00833333,1
0.125,-2.94617e-19,-0.00729167,1
0.125,-2.94617e-19,-0.00625,0.999999
0.125,-2.94617e-19,-0.00520834,0.999999
0.125,-2.94617e-19,-0.00416667,0.999994
0.125,-2.94617e-19,-0.003125,0.999994
0.125,-2.94617e-19,-0.00208333,0.999968
0.125,-2.94617e-19,-0.00104166,0.999968
0.125,-2.94617e-19,6.84073e-11,0.999824
0.125,-2.94617e-19,0.00104167,0.999824
0.125,-2.94617e-19,0.00208334,0.999032
0.125,-2.94617e-19,0.00312501,0.999032
0.125,-2.94617e-19,0.00416667,0.999032
0.125,1.29247e-26,0.00416667,0.994301
0.125,-1.68455e-19,0.00520834,0.994301
0.125,-3.3691e-19,0.00625,0.961742
0.125,-3.3691e-19,0.00729167,0.961742
0.125,-3.3691e-19,0.00833333,0.732359
0.125,-3.3691e-19,0.009375,0.732359
0.125,-3.3691e-19,0.0104167,0.216577
0.125,-3.3691e-19,0.0114583,0.216577
0.125,-3.3691e-19,0.0125,0.0215532
0.125,-3.3691e-19,0.0135417,0.0215532
0.125,-3.3691e-19,0.0145833,0.00446096
0.125,-3.3691e-19,0.015625,0.00446096
0.125,-3.3691e-19,0.0166667,0.00154846
0.125,-3.3691e-19,0.0177084,0.00154846
0.125,-3.3691e-19,0.01875,0.000485331
0.125,-3.3691e-19,0.0197917,0.000485331
0.125,-3.3691e-19,0.0208333,0.000151821
0.125,-3.3691e-19,0.021875,0.000151821
0.125,-3.3691e-19,0.0229166,4.63163e-05
0.125,-3.3691e-19,0.0239583,4.63163e-05
0.125,-3.3691e-19,0.025,1.35151e-05
0.125,-3.3691e-19,0.0260417,1.35151e-05
0.125,-3.3691e-19,0.0270834,3.4717e-06
0.125,-3.3691e-19,0.0281251,3.4717e-06
0.125,-3.3691e-19,0.0291667,7.0404e-07
0.125,-3.3691e-19,0.0302084,7.0404e-07
0.125,-3.3691e-19,0.03125,1.8498e-07
0.125,-3.3691e-19,0.0322917,1.8498e-07
0.125,-3.3691e-19,0.0333333,5.49586e-08
0.125,-3.3691e-19,0.034375,5.49586e-08
0.125,-3.3691e-19,0.0354167,1.32714e-08
0.125,-3.3691e-19,0.0364584,1.32714e-08
0.125,-3.23117e-27,0.0375,4.80837e-09
0.125,-3.3691e-19,0.0375,1.32714e-08
0.125,-1.60079e-19,0.0385417,4.80837e-09
0.125,-3.20158e-19,0.0395834,2.72306e-09
0.125,-3.20158e-19,0.040625,2.72306e-09
0.125,-3.20158e-19,0.0416667,1.76036e-09
0.125,-3.20158e-19,0.0427084,1.76036e-09
0.125,-3.20158e-19,0.0437501,1.41106e-09
0.125,-3.20158e-19,0.0447917,1.41106e-09
0.125,-3.20158e-19,0.0458334,1.186e-09
0.125,-3.20158e-19,0.0468751,1.186e-09
0.125,-3.20158e-19,0.0479168,9.9896e-10
0.125,-3.20158e-19,0.0487078,9.9896e-10
0.125,-3.20158e-19,0.0494987,6.93514e-08
0.125,-3.20158e-19,0.0497494,6.93514e-08
0.125,-3.20158e-19,0.0500001,2.82785e-08
0.125,-3.20158e-19,0.0510418,2.82785e-08
0.125,-3.20158e-19,0.0520835,4.0717e-09
0.125,-3.20158e-19,0.0531252,4.0717e-09
0.125,-3.20158e-19,0.0541669,1.2953e-09
0.125,-3.20158e-19,0.0550154,1.2953e-09
0.125,-3.20158e-19,0.055864,3.94827e-08
0.125,-3.20158e-19,0.0560571,3.94827e-08
0.125,-3.20158e-19,0.0562503,6.85223e-08
0.125,-3.20158e-19,0.057292,6.85223e-08
0.125,-3.20158e-19,0.0583337,5.24945e-08
0.125,-3.20158e-19,0.0586578,5.24945e-08
0.125,-3.20158e-19,0.0589819,1.07733e-09
0.125,-3.20158e-19,0.0596242,1.07733e-09
0.125,-3.20158e-19,0.0602665,5.24945e-08
0.125,-3.20158e-19,0.0603418,5.24945e-08
0.125,-3.20158e-19,0.0604172,1.27981e-08
0.125,-3.20158e-19,0.0605218,1.27981e-08
0.125,-3.20158e-19,0.0606265,9.34203e-10
0.125,-3.20158e-19,0.0615635,9.34203e-10
0.125,-3.20158e-19,0.0625005,7.54234e-10
0.125,-3.20158e-19,0.0635422,7.54234e-10
0.125,-3.20158e-19,0.064584,6.58421e-10
0.125,-3.20158e-19,0.0656257,6.58421e-10
0.125,-3.20158e-19,0.0666675,6.47622e-10
0.125,-3.20158e-19,0.0677093,6.47622e-10
0.125,-3.20158e-19,0.0687511,6.3764e-10
0.125,-3.20158e-19,0.0697928,6.3764e-10
0.125,-3.20158e-19,0.0708346,7.11306e-10
0.125,-3.20158e-19,0.0718765,7.11306e-10
0.125,-3.20158e-19,0.0729184,1.13561e-09
0.125,-3.20158e-19,0.0739601,1.13561e-09
0.125,-3.20158e-19,0.0750018,1.99712e-09
0.125,-3.20158e-19,0.0760439,1.99712e-09
0.125,-3.20158e-19,0.0770859,2.32019e-09
0.125,-3.20158e-19,0.0781277,2.32019e-09
0.125,-3.20158e-19,0.0791696,2.274e-09
0.125,-3.20158e-19,0.0812538,2.274e-09
0.125,-3.20158e-19,0.0833379,2.03432e-09
0.125,-3.20158e-19,0.0875083,2.03432e-09
0.125,-3.20158e-19,0.0916787,1.55376e-09
0.125,-3.20157e-19,0.0958495,1.55376e-09
0.125,-3.20157e-19,0.10002,1.34302e-09
0.125,-3.20156e-19,0.108377,1.34302e-09
0.125,-3.20155e-19,0.116734,1.34302e-09
0.125,0,0.116734,2.00469e-09
0.125,6.92275e-19,0.125095,2.00469e-09
0.125,1.38455e-18,0.133456,2.95322e-09
