# Field minima and maxima
# Time          	field           	min             	location(min)   	processor       	max             	location(max)   	processor       
0.340775        	mag(U)          	0.00000000e+00	(-7.49507167e-02 5.00000000e-01 3.74984650e-01)	0	1.60366003e+00	(7.77282994e-02 1.85570522e-01 5.06275103e-01)	10
0.341489        	mag(U)          	0.00000000e+00	(-7.49507167e-02 5.00000000e-01 3.74984650e-01)	0	1.56661595e+00	(4.64378132e-02 1.91042209e-01 5.12650924e-01)	10
0.342208        	mag(U)          	0.00000000e+00	(-7.49507167e-02 5.00000000e-01 3.74984650e-01)	0	1.56994516e+00	(4.65129801e-02 -1.91179308e-01 5.12739810e-01)	20
0.342927        	mag(U)          	0.00000000e+00	(-7.49507167e-02 5.00000000e-01 3.74984650e-01)	0	1.57009573e+00	(4.01860873e-02 1.90632182e-01 5.12783175e-01)	10
0.343636        	mag(U)          	0.00000000e+00	(-7.49507167e-02 5.00000000e-01 3.74984650e-01)	0	1.63053943e+00	(7.80266651e-02 1.85521175e-01 5.06627569e-01)	10
0.344334        	mag(U)          	0.00000000e+00	(-7.49507167e-02 5.00000000e-01 3.74984650e-01)	0	1.55647931e+00	(4.03319297e-02 1.90597646e-01 5.12955168e-01)	10
0.345032        	mag(U)          	0.00000000e+00	(-7.49507167e-02 5.00000000e-01 3.74984650e-01)	0	1.58617374e+00	(4.68062063e-02 -1.91219876e-01 5.13085648e-01)	20
0.345725        	mag(U)          	0.00000000e+00	(-7.49507167e-02 5.00000000e-01 3.74984650e-01)	0	1.59606677e+00	(7.82423914e-02 1.85502582e-01 5.06881691e-01)	10
0.346409        	mag(U)          	0.00000000e+00	(-7.49507167e-02 5.00000000e-01 3.74984650e-01)	0	1.67211705e+00	(7.83125082e-02 1.85470556e-01 5.06964150e-01)	10
0.347077        	mag(U)          	0.00000000e+00	(-7.49507167e-02 5.00000000e-01 3.74984650e-01)	0	1.56225402e+00	(4.70163233e-02 -1.91270841e-01 5.13332818e-01)	20
0.347751        	mag(U)          	0.00000000e+00	(-7.49507167e-02 5.00000000e-01 3.74984650e-01)	0	1.60224857e+00	(4.70851136e-02 -1.91258670e-01 5.13413619e-01)	20
0.348414        	mag(U)          	0.00000000e+00	(-7.49507167e-02 5.00000000e-01 3.74984650e-01)	0	1.65340016e+00	(7.85171069e-02 1.85455332e-01 5.07204494e-01)	10
0.349073        	mag(U)          	0.00000000e+00	(-7.49507167e-02 5.00000000e-01 3.74984650e-01)	0	1.71564329e+00	(7.85839453e-02 1.85417973e-01 5.07282895e-01)	10
0.349723        	mag(U)          	0.00000000e+00	(-7.49507167e-02 5.00000000e-01 3.74984650e-01)	0	1.59698057e+00	(4.72853689e-02 -1.91312380e-01 5.13648590e-01)	20
0.350372        	mag(U)          	0.00000000e+00	(-7.49507167e-02 5.00000000e-01 3.74984650e-01)	0	1.62074668e+00	(4.73509436e-02 -1.91294656e-01 5.13725434e-01)	20
0.351012        	mag(U)          	0.00000000e+00	(-7.49507167e-02 5.00000000e-01 3.74984650e-01)	0	1.73024403e+00	(7.87794532e-02 1.85405943e-01 5.07512031e-01)	10
0.351648        	mag(U)          	0.00000000e+00	(-7.49507167e-02 5.00000000e-01 3.74984650e-01)	0	1.74610211e+00	(7.88431791e-02 1.85364014e-01 5.07586621e-01)	10
0.352279        	mag(U)          	0.00000000e+00	(-7.49507167e-02 5.00000000e-01 3.74984650e-01)	0	1.66341116e+00	(9.77702564e-02 -1.79612679e-01 5.07620037e-01)	20
0.352901        	mag(U)          	0.00000000e+00	(-7.49507167e-02 5.00000000e-01 3.74984650e-01)	0	1.64297677e+00	(9.78321755e-02 -1.79590305e-01 5.07692451e-01)	20
0.353523        	mag(U)          	0.00000000e+00	(-7.49507167e-02 5.00000000e-01 3.74984650e-01)	0	1.83111632e+00	(7.90300380e-02 1.85353867e-01 5.07805214e-01)	10
0.354137        	mag(U)          	0.00000000e+00	(-7.49507167e-02 5.00000000e-01 3.74984650e-01)	0	1.75195056e+00	(7.90908086e-02 1.85309349e-01 5.07876225e-01)	10
0.35475         	mag(U)          	0.00000000e+00	(-7.49507167e-02 5.00000000e-01 3.74984650e-01)	0	1.81828995e+00	(9.80149864e-02 -1.79642069e-01 5.07906212e-01)	20
0.355342        	mag(U)          	0.00000000e+00	(-7.49507167e-02 5.00000000e-01 3.74984650e-01)	0	1.66810687e+00	(9.80732219e-02 -1.79617449e-01 5.07974216e-01)	20
0.355942        	mag(U)          	0.00000000e+00	(-7.49507167e-02 5.00000000e-01 3.74984650e-01)	0	2.03148914e+00	(-1.51484766e-02 1.85341747e-01 5.08083730e-01)	10
0.356526        	mag(U)          	0.00000000e+00	(-7.49507167e-02 5.00000000e-01 3.74984650e-01)	0	1.76442061e+00	(3.52250949e-02 1.90196498e-01 5.14366969e-01)	10
0.357127        	mag(U)          	0.00000000e+00	(-7.49507167e-02 5.00000000e-01 3.74984650e-01)	0	2.02224180e+00	(9.82476485e-02 -1.79657775e-01 5.08177911e-01)	20
0.35769         	mag(U)          	0.00000000e+00	(-7.49507167e-02 5.00000000e-01 3.74984650e-01)	0	1.65478895e+00	(9.83024613e-02 -1.79634707e-01 5.08241851e-01)	20
0.358274        	mag(U)          	0.00000000e+00	(-7.49507167e-02 5.00000000e-01 3.74984650e-01)	0	2.41077292e+00	(-1.49211822e-02 1.85292868e-01 5.08349000e-01)	10
0.358834        	mag(U)          	0.00000000e+00	(-7.49507167e-02 5.00000000e-01 3.74984650e-01)	0	1.72469697e+00	(3.54491644e-02 1.90160148e-01 5.14628407e-01)	10
0.359426        	mag(U)          	0.00000000e+00	(-7.49507167e-02 5.00000000e-01 3.74984650e-01)	0	2.32991439e+00	(9.84702784e-02 -1.79649432e-01 5.02187522e-01)	20
0.35996         	mag(U)          	0.00000000e+00	(-7.49507167e-02 5.00000000e-01 3.74984650e-01)	0	1.61095569e+00	(9.85213617e-02 -1.79634672e-01 5.14747301e-01)	20
0.360536        	mag(U)          	0.00000000e+00	(-7.49507167e-02 5.00000000e-01 3.74984650e-01)	0	2.87777766e+00	(-1.47032711e-02 1.85260306e-01 5.08603127e-01)	10
0.361073        	mag(U)          	0.00000000e+00	(-7.49507167e-02 5.00000000e-01 3.74984650e-01)	0	1.60910077e+00	(3.56640213e-02 1.90157458e-01 5.14878938e-01)	10
0.361649        	mag(U)          	0.00000000e+00	(-7.49507167e-02 5.00000000e-01 3.74984650e-01)	0	2.90369144e+00	(5.41253726e-02 -2.02743727e-01 5.08955660e-01)	20
0.362142        	mag(U)          	0.00000000e+00	(-7.49507167e-02 5.00000000e-01 3.74984650e-01)	0	1.64039962e+00	(3.57657104e-02 1.90327015e-01 5.14997488e-01)	10
0.362694        	mag(U)          	0.00000000e+00	(-7.49507167e-02 5.00000000e-01 3.74984650e-01)	0	3.16751002e+00	(-1.44977126e-02 1.85269060e-01 5.08842733e-01)	10
0.363196        	mag(U)          	0.00000000e+00	(-7.49507167e-02 5.00000000e-01 3.74984650e-01)	0	1.96298916e+00	(9.88291697e-02 -1.79713352e-01 5.08856139e-01)	20
0.363733        	mag(U)          	0.00000000e+00	(-7.49507167e-02 5.00000000e-01 3.74984650e-01)	0	3.15514994e+00	(5.43242037e-02 -2.02641995e-01 5.09187432e-01)	20
0.364134        	mag(U)          	0.00000000e+00	(-7.49507167e-02 5.00000000e-01 3.74984650e-01)	0	2.03514755e+00	(-1.43616962e-02 1.85511780e-01 5.09001126e-01)	10
0.364591        	mag(U)          	0.00000000e+00	(-7.49507167e-02 5.00000000e-01 3.74984650e-01)	0	2.88320539e+00	(2.97058210e-02 1.90306720e-01 5.02768252e-01)	10
0.365101        	mag(U)          	0.00000000e+00	(-7.49507167e-02 5.00000000e-01 3.74984650e-01)	0	3.42869011e+00	(-1.95999328e-03 -1.85948226e-01 5.02649197e-01)	21
0.365447        	mag(U)          	0.00000000e+00	(-7.49507167e-02 5.00000000e-01 3.74984650e-01)	0	4.84516543e+00	(-4.59582432e-02 -1.73116702e-01 5.02770053e-01)	21
0.365685        	mag(U)          	0.00000000e+00	(-7.49507167e-02 5.00000000e-01 3.74984650e-01)	0	2.09968007e+00	(9.90628849e-02 -1.79115459e-01 5.09127971e-01)	20
0.36597         	mag(U)          	0.00000000e+00	(-7.49507167e-02 5.00000000e-01 3.74984650e-01)	0	1.92922117e+00	(9.90893850e-02 -1.79078473e-01 5.09158832e-01)	20
0.366308        	mag(U)          	0.00000000e+00	(-7.49507167e-02 5.00000000e-01 3.74984650e-01)	0	6.19417793e+00	(5.45667663e-02 2.03127289e-01 5.09470220e-01)	10
0.366496        	mag(U)          	0.00000000e+00	(-7.49507167e-02 5.00000000e-01 3.74984650e-01)	0	7.58529208e+00	(5.45843397e-02 2.03354003e-01 5.09490712e-01)	10
0.366647        	mag(U)          	0.00000000e+00	(-7.49507167e-02 5.00000000e-01 3.74984650e-01)	0	3.60894630e+00	(5.45984936e-02 2.03438659e-01 5.09507218e-01)	10
0.366829        	mag(U)          	0.00000000e+00	(-7.49507167e-02 5.00000000e-01 3.74984650e-01)	0	3.31450069e+00	(9.26779372e-02 -1.78388281e-01 5.09061397e-01)	20
0.367048        	mag(U)          	0.00000000e+00	(-7.49507167e-02 5.00000000e-01 3.74984650e-01)	0	8.48580396e+00	(-2.03284634e-02 1.87065432e-01 4.96923560e-01)	11
0.367172        	mag(U)          	0.00000000e+00	(-7.49507167e-02 5.00000000e-01 3.74984650e-01)	0	1.05202558e+01	(-2.03167804e-02 1.87286209e-01 4.96937046e-01)	11
0.367279        	mag(U)          	0.00000000e+00	(-7.49507167e-02 5.00000000e-01 3.74984650e-01)	0	5.27209852e+00	(1.04431272e-02 -1.83827669e-01 5.08823402e-01)	21
0.367406        	mag(U)          	0.00000000e+00	(-7.49507167e-02 5.00000000e-01 3.74984650e-01)	0	5.08872539e+00	(1.04546397e-02 -1.83711500e-01 5.08836888e-01)	21
0.367556        	mag(U)          	0.00000000e+00	(-7.49507167e-02 5.00000000e-01 3.74984650e-01)	0	1.30079419e+01	(-2.02810069e-02 1.87824194e-01 4.96978429e-01)	11
0.367645        	mag(U)          	0.00000000e+00	(-7.49507167e-02 5.00000000e-01 3.74984650e-01)	0	1.49620362e+01	(-2.02726607e-02 1.88040761e-01 4.96988027e-01)	11
0.367723        	mag(U)          	0.00000000e+00	(-7.49507167e-02 5.00000000e-01 3.74984650e-01)	0	7.63615386e+00	(5.46987085e-02 2.04948264e-01 5.03373988e-01)	10
0.367816        	mag(U)          	0.00000000e+00	(-7.49507167e-02 5.00000000e-01 3.74984650e-01)	0	7.41589811e+00	(5.47073816e-02 2.05079103e-01 5.03384106e-01)	10
0.367925        	mag(U)          	0.00000000e+00	(-7.49507167e-02 5.00000000e-01 3.74984650e-01)	0	1.70962071e+01	(-2.02464574e-02 1.88595110e-01 4.97018242e-01)	11
0.367991        	mag(U)          	0.00000000e+00	(-7.49507167e-02 5.00000000e-01 3.74984650e-01)	0	1.89150445e+01	(-2.02402749e-02 1.88807840e-01 4.97025320e-01)	11
0.36805         	mag(U)          	0.00000000e+00	(-7.49507167e-02 5.00000000e-01 3.74984650e-01)	0	1.03176495e+01	(5.47290545e-02 2.05722337e-01 5.03409390e-01)	10
0.368121        	mag(U)          	0.00000000e+00	(-7.49507167e-02 5.00000000e-01 3.74984650e-01)	0	1.01940549e+01	(5.47356113e-02 2.05860799e-01 5.03417040e-01)	10
0.368203        	mag(U)          	0.00000000e+00	(-7.49507167e-02 5.00000000e-01 3.74984650e-01)	0	2.27885762e+01	(1.11289297e-02 1.95494514e-01 4.90797890e-01)	11
0.368252        	mag(U)          	0.00000000e+00	(-7.49507167e-02 5.00000000e-01 3.74984650e-01)	0	2.51435425e+01	(1.11335923e-02 1.95704377e-01 4.90803223e-01)	11
0.368298        	mag(U)          	0.00000000e+00	(-7.49507167e-02 5.00000000e-01 3.74984650e-01)	0	1.24396875e+01	(5.47519928e-02 2.06504297e-01 5.03436152e-01)	10
0.368353        	mag(U)          	0.00000000e+00	(-7.49507167e-02 5.00000000e-01 3.74984650e-01)	0	1.28748639e+01	(1.05393456e-02 -1.81421407e-01 5.08936881e-01)	21
0.368415        	mag(U)          	0.00000000e+00	(-7.49507167e-02 5.00000000e-01 3.74984650e-01)	0	3.06762346e+01	(1.11488107e-02 1.96280090e-01 4.90820686e-01)	11
0.368453        	mag(U)          	0.00000000e+00	(-7.49507167e-02 5.00000000e-01 3.74984650e-01)	0	3.33851959e+01	(6.82653937e-02 2.03536560e-01 4.78453051e-01)	10
0.368488        	mag(U)          	0.00000000e+00	(-7.49507167e-02 5.00000000e-01 3.74984650e-01)	0	1.56384511e+01	(1.05513410e-02 -1.80792509e-01 5.08951207e-01)	21
0.368531        	mag(U)          	0.00000000e+00	(-7.49507167e-02 5.00000000e-01 3.74984650e-01)	0	1.65653437e+01	(1.05550828e-02 -1.80647202e-01 5.08955649e-01)	21
0.368579        	mag(U)          	0.00000000e+00	(-7.49507167e-02 5.00000000e-01 3.74984650e-01)	0	4.77020379e+01	(1.42618063e-01 1.77029105e-01 4.78467825e-01)	10
0.368608        	mag(U)          	0.00000000e+00	(-7.49507167e-02 5.00000000e-01 3.74984650e-01)	0	5.05794515e+01	(1.42620770e-01 1.77235640e-01 4.78470984e-01)	10
0.368636        	mag(U)          	0.00000000e+00	(-7.49507167e-02 5.00000000e-01 3.74984650e-01)	0	2.05142312e+01	(1.11696371e-02 1.97397333e-01 4.90844420e-01)	11
0.368669        	mag(U)          	0.00000000e+00	(-7.49507167e-02 5.00000000e-01 3.74984650e-01)	0	2.21900653e+01	(1.11727338e-02 1.97549698e-01 4.90847956e-01)	11
0.368707        	mag(U)          	0.00000000e+00	(-7.49507167e-02 5.00000000e-01 3.74984650e-01)	0	7.16134045e+01	(-1.91038803e-02 2.02763447e-01 4.72228987e-01)	11
0.368729        	mag(U)          	0.00000000e+00	(-7.49507167e-02 5.00000000e-01 3.74984650e-01)	0	7.71908685e+01	(-1.91017729e-02 2.02968268e-01 4.72231446e-01)	11
0.368751        	mag(U)          	0.00000000e+00	(-7.49507167e-02 5.00000000e-01 3.74984650e-01)	0	2.61042393e+01	(9.28658559e-02 1.85682532e-01 4.90530746e-01)	10
0.368777        	mag(U)          	0.00000000e+00	(-7.49507167e-02 5.00000000e-01 3.74984650e-01)	0	2.95519057e+01	(6.82954561e-02 2.05405914e-01 4.72238014e-01)	11
0.368807        	mag(U)          	0.00000000e+00	(-7.49507167e-02 5.00000000e-01 3.74984650e-01)	0	1.07521087e+02	(-1.90946271e-02 2.03567633e-01 4.72239784e-01)	11
0.368825        	mag(U)          	0.00000000e+00	(-7.49507167e-02 5.00000000e-01 3.74984650e-01)	0	1.06909429e+02	(-1.90929736e-02 2.03770995e-01 4.72241714e-01)	11
0.368842        	mag(U)          	0.00000000e+00	(-7.49507167e-02 5.00000000e-01 3.74984650e-01)	0	3.35135684e+01	(9.28738094e-02 1.86475358e-01 4.90540512e-01)	10
