# Force       
# CofR        : (0.000000e+00 0.000000e+00 0.000000e+00)
#
# Time        	total_x total_y total_z	pressure_x pressure_y pressure_z	viscous_x viscous_y viscous_z
1e-05          2.561814e-03 1.613722e-03 6.750721e+02 2.561813e-03 1.613723e-03 6.750715e+02 1.185348e-09 -2.896517e-10 6.355864e-04
