# Moment      
# CofR        : (0.000000e+00 0.000000e+00 0.000000e+00)
#
# Time        	total_x total_y total_z	pressure_x pressure_y pressure_z	viscous_x viscous_y viscous_z
1e-05          5.194468e-04 -3.487593e-04 5.824838e-10 5.194467e-04 -3.487591e-04 5.830161e-10 1.037587e-10 -1.614388e-10 -5.322699e-13
