x,y,z,alpha.water
0.15,0,-0.125,1
0.15,-8.27181e-25,-0.125,1
0.15,-4.92664e-19,-0.120834,1
0.15,-9.85328e-19,-0.116667,1.00001
0.15,-9.85326e-19,-0.1125,1.00001
0.15,-9.85324e-19,-0.108333,1.00001
0.15,-9.85323e-19,-0.104167,1.00001
0.15,-9.85321e-19,-0.1,1.00001
0.15,-9.85319e-19,-0.0958334,1.00001
0.15,-9.85317e-19,-0.0916667,1.00001
0.15,-9.85317e-19,-0.0875,1.00001
0.15,-9.85318e-19,-0.0833333,1.00001
0.15,-9.85321e-19,-0.08125,1.00001
0.15,-9.85324e-19,-0.0791667,1.00001
0.15,-9.85322e-19,-0.0781249,1.00001
0.15,-9.8532e-19,-0.0770831,1.00001
0.15,-9.85316e-19,-0.0760416,1.00001
0.15,-9.85311e-19,-0.075,1.00001
0.15,-9.85311e-19,-0.0739583,1.00001
0.15,-9.85311e-19,-0.0729166,1.00001
0.15,-9.85312e-19,-0.0718749,1.00001
0.15,-9.85312e-19,-0.0708333,1.00001
0.15,-9.85312e-19,-0.0697916,1.00001
0.15,-9.85312e-19,-0.0687499,1.00001
0.15,-9.85312e-19,-0.0677083,1.00001
0.15,-9.85313e-19,-0.0666667,1.00001
0.15,-9.85313e-19,-0.065625,1.00001
0.15,-9.85313e-19,-0.0645833,1.00001
0.15,-9.85313e-19,-0.0635416,1.00001
0.15,-9.85314e-19,-0.0625,1.00001
0.15,-9.85312e-19,-0.0614583,1.00001
0.15,-9.85311e-19,-0.0604166,1.00001
0.15,-9.8531e-19,-0.059375,1.00001
0.15,-9.85309e-19,-0.0583333,1.00001
0.15,-9.85309e-19,-0.0572916,1.00001
0.15,-9.85309e-19,-0.05625,1.00001
0.15,-9.85309e-19,-0.0552083,1.00001
0.15,-9.8531e-19,-0.0541667,1.00001
0.15,-9.85309e-19,-0.053125,1.00001
0.15,-9.85309e-19,-0.0520833,1.00001
0.15,-9.85308e-19,-0.0510417,1.00001
0.15,-9.85307e-19,-0.05,1.00001
0.15,-9.85307e-19,-0.0489584,1.00001
0.15,-9.85307e-19,-0.0479167,1.00001
0.15,-9.85306e-19,-0.046875,1.00001
0.15,-9.85305e-19,-0.0458333,1.00001
0.15,-9.85305e-19,-0.0447917,1.00001
0.15,-9.85306e-19,-0.04375,1.00001
0.15,-9.85305e-19,-0.0427084,1.00001
0.15,-9.85305e-19,-0.0416667,1.00001
0.15,-9.85305e-19,-0.040625,1.00001
0.15,-9.85305e-19,-0.0395834,1.00001
0.15,-9.85305e-19,-0.0385417,1.00001
0.15,-9.85305e-19,-0.0375,1.00001
0.15,-9.85305e-19,-0.0364583,1.00001
0.15,-9.85305e-19,-0.0354166,1
0.15,-9.85305e-19,-0.0352765,1
0.15,-9.85305e-19,-0.0351363,1
0.15,-9.85305e-19,-0.0342348,1
0.15,-9.85305e-19,-0.0333333,1
0.15,-9.85305e-19,-0.0322917,1
0.15,-9.85305e-19,-0.03125,1
0.15,-9.85305e-19,-0.0302084,1
0.15,-9.85306e-19,-0.0291667,0.999999
0.15,-9.85306e-19,-0.0281251,0.999999
0.15,0,-0.0270834,0.999994
0.15,-9.85305e-19,-0.0270834,0.999999
0.15,3.92791e-20,-0.0260417,0.999994
0.15,7.85582e-20,-0.025,0.999974
0.15,7.85579e-20,-0.0239583,0.999974
0.15,7.85577e-20,-0.0229166,0.999898
0.15,7.85575e-20,-0.021875,0.999898
0.15,7.85573e-20,-0.0208333,0.999664
0.15,7.85568e-20,-0.0197916,0.999664
0.15,7.85562e-20,-0.01875,0.998929
0.15,7.85559e-20,-0.0177083,0.998929
0.15,7.85557e-20,-0.0166667,0.996661
0.15,7.85556e-20,-0.0156251,0.996661
0.15,7.85555e-20,-0.0145834,0.99072
0.15,7.8556e-20,-0.0135417,0.99072
0.15,7.85565e-20,-0.0125,0.946859
0.15,7.85567e-20,-0.0114584,0.946859
0.15,7.8557e-20,-0.0104167,0.61669
0.15,7.8557e-20,-0.00937502,0.61669
0.15,7.85569e-20,-0.00833333,0.156257
0.15,7.85556e-20,-0.00729167,0.156257
0.15,7.85543e-20,-0.00625,0.0292321
0.15,7.85548e-20,-0.00520834,0.0292321
0.15,7.85553e-20,-0.00416667,0.00570387
0.15,7.85554e-20,-0.003125,0.00570387
0.15,7.85555e-20,-0.00208333,0.00083542
0.15,7.85558e-20,-0.00104166,0.00083542
0.15,7.85561e-20,6.25124e-12,0.00083542
0.15,-4.1359e-25,6.25124e-12,0.000128489
0.15,1.58618e-19,0.00104167,0.000128489
0.15,3.17237e-19,0.00208333,1.90633e-05
0.15,3.17237e-19,0.003125,1.90633e-05
0.15,3.17237e-19,0.00416667,2.89764e-06
0.15,3.17236e-19,0.00520833,2.89764e-06
0.15,3.17236e-19,0.00625,4.29807e-07
0.15,3.17236e-19,0.00729166,4.29807e-07
0.15,3.17236e-19,0.00833333,6.3635e-08
0.15,3.17236e-19,0.00937501,6.3635e-08
0.15,3.17236e-19,0.0104167,1.1588e-08
0.15,3.17236e-19,0.0110177,1.1588e-08
0.15,3.17236e-19,0.0116187,1.17507e-08
0.15,3.17236e-19,0.0120593,1.17507e-08
0.15,3.17236e-19,0.0125,4.31551e-09
0.15,3.17236e-19,0.0135417,4.31551e-09
0.15,3.17236e-19,0.0145834,3.16845e-09
0.15,3.17236e-19,0.0156251,3.16845e-09
0.15,3.17236e-19,0.0166667,3.08535e-09
0.15,3.17236e-19,0.0174033,3.08535e-09
0.15,3.17236e-19,0.0181398,2.98956e-09
0.15,3.17236e-19,0.0184449,2.98956e-09
0.15,3.17236e-19,0.01875,2.98738e-09
0.15,3.17236e-19,0.0197917,2.98738e-09
0.15,3.17236e-19,0.0208333,2.60243e-09
0.15,3.17236e-19,0.021875,2.60243e-09
0.15,3.17236e-19,0.0229166,2.19472e-09
0.15,3.17236e-19,0.0239583,2.19472e-09
0.15,3.17236e-19,0.025,1.94729e-09
0.15,3.17236e-19,0.0260417,1.94729e-09
0.15,3.17236e-19,0.0270834,1.72704e-09
0.15,3.17236e-19,0.0281251,1.72704e-09
0.15,3.17236e-19,0.0291667,1.48216e-09
0.15,3.17235e-19,0.0302084,1.48216e-09
0.15,3.17235e-19,0.03125,1.27559e-09
0.15,3.17235e-19,0.0322917,1.27559e-09
0.15,3.17234e-19,0.0333333,1.13555e-09
0.15,3.17234e-19,0.034375,1.13555e-09
0.15,3.17234e-19,0.0354166,1.04495e-09
0.15,3.17233e-19,0.0364583,1.04495e-09
0.15,3.17233e-19,0.0375,9.90249e-10
0.15,3.17233e-19,0.0385417,9.90249e-10
0.15,3.17233e-19,0.0395833,9.90249e-10
0.15,2.09311e-08,0.0395833,9.64633e-10
0.15,2.09311e-08,0.040625,9.64633e-10
0.15,2.09311e-08,0.0416667,9.50288e-10
0.15,2.09311e-08,0.0427083,9.50288e-10
0.15,2.09311e-08,0.04375,9.38231e-10
0.15,2.09311e-08,0.0447916,9.38231e-10
0.15,2.09311e-08,0.0458333,9.50656e-10
0.15,2.09311e-08,0.046875,9.50656e-10
0.15,2.09311e-08,0.0479167,1.25727e-09
0.15,2.09311e-08,0.0489583,1.25727e-09
0.15,2.09311e-08,0.05,2.11101e-09
0.15,2.09311e-08,0.0510417,2.11101e-09
0.15,2.09311e-08,0.0520833,2.98831e-09
0.15,2.09311e-08,0.053125,2.98831e-09
0.15,2.09311e-08,0.0541667,3.24799e-09
0.15,2.09311e-08,0.0552084,3.24799e-09
0.15,2.09311e-08,0.0562501,2.94388e-09
0.15,2.09311e-08,0.0572917,2.94388e-09
0.15,2.09311e-08,0.0583334,2.31623e-09
0.15,2.09311e-08,0.059375,2.31623e-09
0.15,2.09311e-08,0.0604167,2.17996e-09
0.15,2.09311e-08,0.0614584,2.17996e-09
0.15,2.09311e-08,0.0625,2.53254e-09
0.15,2.09311e-08,0.0635417,2.53254e-09
0.15,2.09311e-08,0.0645833,2.86371e-09
0.15,2.09311e-08,0.065625,2.86371e-09
0.15,2.09311e-08,0.0666667,2.85472e-09
0.15,2.09311e-08,0.0677084,2.85472e-09
0.15,2.09311e-08,0.0687501,2.57422e-09
0.15,2.09311e-08,0.0697918,2.57422e-09
0.15,2.09311e-08,0.0708334,2.52233e-09
0.15,2.09311e-08,0.0718751,2.52233e-09
0.15,2.09311e-08,0.0729167,2.93082e-09
0.15,2.09311e-08,0.0739585,2.93082e-09
0.15,2.09311e-08,0.0750002,3.38405e-09
0.15,2.09311e-08,0.0760418,3.38405e-09
0.15,2.09311e-08,0.0770834,3.51525e-09
0.15,2.09311e-08,0.0781252,3.51525e-09
0.15,2.09311e-08,0.0791669,3.52567e-09
0.15,2.09311e-08,0.0812503,3.52567e-09
0.15,2.09311e-08,0.0833337,3.5492e-09
0.15,2.09311e-08,0.0875008,3.5492e-09
0.15,2.09311e-08,0.0916678,3.42362e-09
0.15,2.09311e-08,0.095447,3.42362e-09
0.15,2.09311e-08,0.0992261,3.4817e-09
0.15,2.09311e-08,0.0996141,3.4817e-09
0.15,2.09311e-08,0.100002,2.74192e-09
0.15,2.09311e-08,0.100371,2.74192e-09
0.15,2.09311e-08,0.100739,2.60187e-09
0.15,2.09311e-08,0.104538,2.60187e-09
0.15,2.09311e-08,0.108337,2.11445e-09
0.15,2.09311e-08,0.112505,2.11445e-09
0.15,2.06795e-25,0.116672,2.04275e-09
0.15,2.09311e-08,0.116672,2.11445e-09
0.15,6.5733e-19,0.12084,2.04275e-09
0.15,1.31466e-18,0.125008,2.00588e-09
