# Force       
# CofR        : (0.000000e+00 0.000000e+00 0.000000e+00)
#
# Time        	total_x total_y total_z	pressure_x pressure_y pressure_z	viscous_x viscous_y viscous_z
2.20005e-05    3.269456e-02 -5.877243e-04 9.659966e+01 3.269455e-02 -5.877252e-04 9.659892e+01 1.556556e-08 9.130096e-10 7.450416e-04
3.64017e-05    2.751068e-02 -1.371709e-03 -7.805849e+01 2.751065e-02 -1.371709e-03 -7.805913e+01 2.994399e-08 1.454248e-10 6.385424e-04
5.36833e-05    2.833024e-02 -3.321050e-05 1.143886e+00 2.833019e-02 -3.321049e-05 1.143246e+00 4.819726e-08 -1.059132e-11 6.394309e-04
7.44211e-05    2.970259e-02 1.032235e-03 8.309456e-01 2.970252e-02 1.032234e-03 8.303056e-01 7.108035e-08 8.411772e-10 6.400589e-04
9.93055e-05    2.968617e-02 -1.001349e-03 7.136341e-01 2.968607e-02 -1.001349e-03 7.129935e-01 9.845819e-08 -3.256204e-11 6.405412e-04
0.000129165    2.964700e-02 -1.310654e-03 6.418218e-01 2.964687e-02 -1.310652e-03 6.411809e-01 1.311107e-07 -1.414281e-09 6.409205e-04
0.00016499     2.968971e-02 2.073143e-03 5.969079e-01 2.968954e-02 2.073142e-03 5.962667e-01 1.703212e-07 1.389216e-09 6.412255e-04
0.000207972    2.970003e-02 1.085406e-03 5.682352e-01 2.969981e-02 1.085403e-03 5.675937e-01 2.174043e-07 3.264541e-09 6.414760e-04
0.000259549    2.969649e-02 -3.096074e-03 5.497380e-01 2.969622e-02 -3.096071e-03 5.490963e-01 2.738770e-07 -2.701325e-09 6.416870e-04
0.000321429    2.972095e-02 -4.727224e-04 5.376218e-01 2.972060e-02 -4.727187e-04 5.369800e-01 3.417336e-07 -3.624427e-09 6.418695e-04
0.000395657    2.971799e-02 4.471385e-03 5.294939e-01 2.971757e-02 4.471376e-03 5.288519e-01 4.231251e-07 8.840974e-09 6.420311e-04
0.000484757    2.972289e-02 -7.922159e-04 5.240019e-01 2.972237e-02 -7.922222e-04 5.233597e-01 5.208721e-07 6.372542e-09 6.421788e-04
0.000591659    2.971668e-02 -5.868072e-03 5.201792e-01 2.971605e-02 -5.868055e-03 5.195369e-01 6.382710e-07 -1.713491e-08 6.423167e-04
0.000719941    2.974396e-02 3.032814e-03 5.175137e-01 2.974318e-02 3.032816e-03 5.168713e-01 7.791059e-07 -2.201410e-09 6.424492e-04
0.000873879    2.974772e-02 7.094480e-03 5.156125e-01 2.974677e-02 7.094441e-03 5.149700e-01 9.483607e-07 3.869429e-08 6.425797e-04
0.00105849     2.980935e-02 -6.479096e-03 5.142376e-01 2.980819e-02 -6.479090e-03 5.135949e-01 1.151550e-06 -5.703718e-09 6.427109e-04
0.00127986     2.980837e-02 -7.650515e-03 5.132308e-01 2.980697e-02 -7.650446e-03 5.125880e-01 1.395104e-06 -6.907503e-08 6.428460e-04
0.00154526     2.985237e-02 1.144190e-02 5.124899e-01 2.985068e-02 1.144185e-02 5.118469e-01 1.687946e-06 4.551429e-08 6.429872e-04
0.00186392     2.984989e-02 6.773779e-03 5.119380e-01 2.984785e-02 6.773653e-03 5.112949e-01 2.040077e-06 1.262960e-07 6.431368e-04
0.00224581     2.993612e-02 -1.797497e-02 5.115334e-01 2.993366e-02 -1.797484e-02 5.108901e-01 2.463443e-06 -1.311279e-07 6.432962e-04
0.0027048      2.992839e-02 -3.422461e-03 5.112355e-01 2.992542e-02 -3.422271e-03 5.105921e-01 2.972645e-06 -1.903812e-07 6.434673e-04
0.00325454     3.004008e-02 2.589532e-02 5.110443e-01 3.003649e-02 2.589498e-02 5.104006e-01 3.584828e-06 3.420013e-07 6.436513e-04
0.00391274     3.012201e-02 -3.757966e-03 5.109179e-01 3.011769e-02 -3.758215e-03 5.102741e-01 4.320054e-06 2.492091e-07 6.438478e-04
0.00470043     3.018911e-02 -3.452871e-02 5.108622e-01 3.018391e-02 -3.452794e-02 5.102181e-01 5.203706e-06 -7.698058e-07 6.440561e-04
0.00564408     3.030534e-02 1.654829e-02 5.108740e-01 3.029907e-02 1.654848e-02 5.102297e-01 6.268149e-06 -1.873751e-07 6.442736e-04
0.00678102     3.030290e-02 4.207946e-02 5.109555e-01 3.029535e-02 4.207785e-02 5.103110e-01 7.552162e-06 1.603422e-06 6.444951e-04
0.00815204     3.048382e-02 -3.673644e-02 5.110689e-01 3.047471e-02 -3.673616e-02 5.104242e-01 9.112175e-06 -2.759293e-07 6.447034e-04
0.00979236     3.069622e-02 -4.619902e-02 5.112644e-01 3.068523e-02 -4.619590e-02 5.106195e-01 1.099364e-05 -3.120112e-06 6.448785e-04
0.0117536      3.113246e-02 6.624035e-02 5.115625e-01 3.111918e-02 6.623862e-02 5.109175e-01 1.327280e-05 1.726084e-06 6.449938e-04
0.0141389      3.095869e-02 4.134167e-02 5.119545e-01 3.094263e-02 4.133623e-02 5.113095e-01 1.605383e-05 5.443493e-06 6.450051e-04
0.0170013      3.163650e-02 -1.051143e-01 5.123964e-01 3.161705e-02 -1.051085e-01 5.117515e-01 1.945494e-05 -5.815781e-06 6.448299e-04
0.0203216      3.252472e-02 -2.546745e-02 5.129268e-01 3.250121e-02 -2.545841e-02 5.122824e-01 2.351034e-05 -9.043853e-06 6.443676e-04
0.0241163      3.306746e-02 1.582028e-01 5.135392e-01 3.303919e-02 1.581893e-01 5.128956e-01 2.826587e-05 1.346959e-05 6.435060e-04
0.0283326      3.417648e-02 -1.105575e-02 5.141311e-01 3.414275e-02 -1.106753e-02 5.134890e-01 3.373206e-05 1.177356e-05 6.421018e-04
0.0328125      3.575505e-02 -2.321406e-01 5.147320e-01 3.571527e-02 -2.321134e-01 5.140919e-01 3.977789e-05 -2.722316e-05 6.401006e-04
0.0372923      3.749262e-02 7.883562e-02 5.149719e-01 3.744654e-02 7.884964e-02 5.143345e-01 4.608344e-05 -1.402253e-05 6.374201e-04
0.0417721      3.862282e-02 3.390641e-01 5.156759e-01 3.857028e-02 3.390212e-01 5.150416e-01 5.253475e-05 4.286811e-05 6.342938e-04
0.045932       4.067051e-02 -2.116654e-01 5.152650e-01 4.061182e-02 -2.116752e-01 5.146344e-01 5.868995e-05 9.837414e-06 6.305481e-04
0.0504385      3.865572e-02 -4.393950e-01 5.173907e-01 3.859048e-02 -4.393307e-01 5.167640e-01 6.524047e-05 -6.431667e-05 6.267178e-04
0.0542517      4.524568e-02 4.204898e-01 5.146344e-01 4.517493e-02 4.204934e-01 5.140126e-01 7.074645e-05 -3.679356e-06 6.218821e-04
0.0584115      4.011988e-02 5.267471e-01 5.182405e-01 4.004285e-02 5.266688e-01 5.176230e-01 7.702738e-05 7.832267e-05 6.174979e-04
0.0621932      4.559875e-02 -7.873447e-01 5.157962e-01 4.551627e-02 -7.873110e-01 5.151841e-01 8.247567e-05 -3.368559e-05 6.120595e-04
0.0663951      4.180185e-02 -5.124749e-01 5.206795e-01 4.171271e-02 -5.123606e-01 5.200721e-01 8.913323e-05 -1.143159e-04 6.074539e-04
0.0697566      4.857322e-02 1.382525e+00 5.116501e-01 4.847835e-02 1.382466e+00 5.110497e-01 9.487494e-05 5.942029e-05 6.004125e-04
0.0735382      4.354032e-02 2.518940e-01 5.199005e-01 4.343931e-02 2.517988e-01 5.193055e-01 1.010027e-04 9.520683e-05 5.950400e-04
0.0773199      4.739331e-02 -2.143200e+00 5.255866e-01 4.728644e-02 -2.142992e+00 5.249951e-01 1.068686e-04 -2.082472e-04 5.914630e-04
0.079841       5.291033e-02 -5.191478e-01 5.207783e-01 5.279851e-02 -5.188908e-01 5.201904e-01 1.118220e-04 -2.569577e-04 5.878201e-04
0.082082       4.477013e-02 4.054792e+00 4.823511e-01 4.465465e-02 4.054710e+00 4.817750e-01 1.154791e-04 8.203622e-05 5.760661e-04
0.0846432      4.736898e-02 -1.037132e+00 5.279140e-01 4.724913e-02 -1.037116e+00 5.273406e-01 1.198547e-04 -1.648817e-05 5.734174e-04
0.0877165      4.950266e-02 -5.140962e+00 6.163359e-01 4.937709e-02 -5.140352e+00 6.157385e-01 1.255694e-04 -6.092829e-04 5.973918e-04
0.088741       5.546480e-02 -2.663420e+00 5.854192e-01 5.533643e-02 -2.662710e+00 5.848165e-01 1.283706e-04 -7.097493e-04 6.026803e-04
0.0896801      3.678204e-02 1.217512e+01 2.079809e-01 3.665252e-02 1.217540e+01 2.074075e-01 1.295158e-04 -2.824613e-04 5.733723e-04
0.0908278      5.899005e-02 -2.834698e+00 6.161426e-01 5.885865e-02 -2.834295e+00 6.155609e-01 1.313932e-04 -4.024414e-04 5.816884e-04
0.0921396      7.000744e-02 -1.528072e+01 1.127005e+00 6.987246e-02 -1.527957e+01 1.126349e+00 1.349874e-04 -1.153499e-03 6.565802e-04
0.0927018      5.624899e-02 -3.724978e+00 7.525185e-01 5.611244e-02 -3.723748e+00 7.518494e-01 1.365420e-04 -1.230515e-03 6.690415e-04
0.0932639      1.278434e-02 3.100960e+01 -8.399500e-01 1.264760e-02 3.101018e+01 -8.405461e-01 1.367329e-04 -5.794093e-04 5.961364e-04
0.0939385      8.589518e-02 -1.019808e+01 1.059096e+00 8.575686e-02 -1.019725e+01 1.058466e+00 1.383229e-04 -8.341106e-04 6.295197e-04
0.0946975      1.282706e-01 -3.894997e+01 2.840323e+00 1.281281e-01 -3.894803e+01 2.839525e+00 1.424923e-04 -1.941930e-03 7.979769e-04
0.0950516      4.669108e-02 2.461473e+00 5.824139e-01 4.654769e-02 2.463382e+00 5.816126e-01 1.433897e-04 -1.908134e-03 8.013634e-04
0.0954331      -6.869863e-02 6.849383e+01 -3.799514e+00 -6.884107e-02 6.849476e+01 -3.800160e+00 1.424410e-04 -9.323390e-04 6.460047e-04
0.0958907      1.709088e-01 -3.551665e+01 3.074511e+00 1.707639e-01 -3.551511e+01 3.073755e+00 1.448631e-04 -1.535730e-03 7.564260e-04
0.0963484      2.743298e-01 -8.987474e+01 7.707199e+00 2.741795e-01 -8.987167e+01 7.706128e+00 1.503029e-04 -3.077309e-03 1.071395e-03
0.0965773      -4.478077e-02 4.719349e+01 -2.863072e+00 -4.493107e-02 4.719616e+01 -2.864073e+00 1.503013e-04 -2.672306e-03 1.000589e-03
0.0968413      -2.460775e-01 1.257032e+02 -9.844504e+00 -2.462255e-01 1.257046e+02 -9.845247e+00 1.480415e-04 -1.431537e-03 7.435012e-04
0.0971582      4.394072e-01 -1.188918e+02 1.142112e+01 4.392543e-01 -1.188889e+02 1.142005e+01 1.529182e-04 -2.833367e-03 1.071200e-03
0.0974175      6.369922e-01 -1.891324e+02 1.956804e+01 6.368324e-01 -1.891277e+02 1.956650e+01 1.597624e-04 -4.668981e-03 1.543377e-03
0.09757        -6.364483e-01 2.440604e+02 -2.330099e+01 -6.366049e-01 2.440637e+02 -2.330219e+01 1.566325e-04 -3.276990e-03 1.204285e-03
0.0977443      -4.532733e-01 1.763325e+02 -1.724419e+01 -4.534271e-01 1.763346e+02 -1.724510e+01 1.538113e-04 -2.125117e-03 9.140779e-04
0.0979502      1.464943e+00 -4.006239e+02 4.489190e+01 1.464778e+00 -4.006187e+02 4.489012e+01 1.648337e-04 -5.201361e-03 1.780228e-03
0.0980875      1.391976e+00 -3.549300e+02 4.359056e+01 1.391804e+00 -3.549229e+02 4.358822e+01 1.722799e-04 -7.021785e-03 2.345411e-03
0.0981887      -2.979035e+00 8.807248e+02 -1.031126e+02 -2.979196e+00 8.807285e+02 -1.031139e+02 1.617757e-04 -3.693726e-03 1.362940e-03
0.0983101      -1.628987e-01 7.714083e+01 -7.852043e+00 -1.630596e-01 7.714416e+01 -7.853311e+00 1.609311e-04 -3.331972e-03 1.268739e-03
0.0984518      4.925648e+00 -1.203445e+03 1.568156e+02 4.925462e+00 -1.203436e+03 1.568122e+02 1.863674e-04 -9.702277e-03 3.365323e-03
0.0985226      3.158159e+00 -7.009454e+02 1.011328e+02 3.157965e+00 -7.009338e+02 1.011287e+02 1.946974e-04 -1.155054e-02 4.047175e-03
0.0985846      -1.067831e+01 2.652819e+03 -3.636333e+02 -1.067848e+01 2.652824e+03 -3.636352e+02 1.713776e-04 -5.413992e-03 1.933094e-03
0.0986596      1.690641e+00 -3.468567e+02 5.234768e+01 1.690465e+00 -3.468503e+02 5.234538e+01 1.755363e-04 -6.360338e-03 2.300527e-03
0.098744       1.600992e+01 -3.446492e+03 5.178510e+02 1.600969e+01 -3.446475e+03 5.178445e+02 2.236583e-04 -1.724209e-02 6.427764e-03
0.0987836      5.767107e+00 -1.054145e+03 1.800220e+02 5.766876e+00 -1.054127e+03 1.800149e+02 2.318600e-04 -1.878764e-02 7.112244e-03
0.0988219      -3.230858e+01 6.973626e+03 -1.096254e+03 -3.230877e+01 6.973635e+03 -1.096257e+03 1.882198e-04 -8.813868e-03 3.178443e-03
0.0988676      9.499414e+00 -1.879811e+03 3.120738e+02 9.499211e+00 -1.879799e+03 3.120693e+02 2.029734e-04 -1.197631e-02 4.517956e-03
0.0989195      4.627000e+01 -8.779752e+03 1.502611e+03 4.626971e+01 -8.779723e+03 1.502599e+03 2.874989e-04 -2.904672e-02 1.187816e-02
0.0989438      5.137177e+00 -5.140052e+02 1.297078e+02 5.136885e+00 -5.139757e+02 1.296956e+02 2.917791e-04 -2.949615e-02 1.219869e-02
0.0989686      -8.598729e+01 1.626094e+04 -2.892711e+03 -8.598751e+01 1.626096e+04 -2.892717e+03 2.167776e-04 -1.444955e-02 5.494550e-03
