# Force       
# CofR        : (0.000000e+00 0.000000e+00 0.000000e+00)
#
# Time        	total_x total_y total_z	pressure_x pressure_y pressure_z	viscous_x viscous_y viscous_z
2.20005e-05    3.448548e-02 4.444595e-04 9.659903e+01 3.448547e-02 4.444585e-04 9.659829e+01 1.601612e-08 1.012562e-09 7.450409e-04
3.64017e-05    2.640197e-02 -4.552730e-03 -7.805919e+01 2.640194e-02 -4.552729e-03 -7.805983e+01 3.012846e-08 -6.374133e-10 6.385411e-04
5.36833e-05    2.796861e-02 8.900892e-04 1.144847e+00 2.796856e-02 8.900896e-04 1.144207e+00 4.818396e-08 -3.552477e-10 6.394311e-04
7.44211e-05    2.969087e-02 9.432163e-04 8.309295e-01 2.969080e-02 9.432159e-04 8.302894e-01 7.097831e-08 4.198113e-10 6.400591e-04
9.93055e-05    2.964767e-02 -8.459716e-04 7.136080e-01 2.964757e-02 -8.459714e-04 7.129675e-01 9.823198e-08 -2.112764e-10 6.405414e-04
0.000129165    2.965017e-02 -7.993544e-04 6.418187e-01 2.965004e-02 -7.993533e-04 6.411778e-01 1.310240e-07 -1.119463e-09 6.409207e-04
0.00016499     2.968893e-02 1.150868e-03 5.968863e-01 2.968876e-02 1.150867e-03 5.962451e-01 1.703731e-07 1.064487e-10 6.412256e-04
0.000207972    2.970219e-02 3.980785e-04 5.682321e-01 2.970197e-02 3.980775e-04 5.675906e-01 2.176232e-07 9.204707e-10 6.414761e-04
0.000259549    2.971055e-02 -1.089079e-03 5.497556e-01 2.971028e-02 -1.089078e-03 5.491139e-01 2.743287e-07 -8.072431e-10 6.416872e-04
0.000321429    2.970615e-02 -7.357979e-05 5.375964e-01 2.970581e-02 -7.357858e-05 5.369545e-01 3.424221e-07 -1.207618e-09 6.418695e-04
0.000395657    2.973506e-02 1.060308e-03 5.294863e-01 2.973464e-02 1.060307e-03 5.288443e-01 4.241885e-07 1.378443e-09 6.420311e-04
0.000484757    2.972498e-02 -2.115480e-04 5.240057e-01 2.972446e-02 -2.115491e-04 5.233635e-01 5.223242e-07 1.138314e-09 6.421788e-04
0.000591659    2.972012e-02 -9.117736e-04 5.201826e-01 2.971948e-02 -9.117719e-04 5.195403e-01 6.400824e-07 -1.706489e-09 6.423167e-04
0.000719941    2.974100e-02 4.512370e-04 5.175041e-01 2.974022e-02 4.512372e-04 5.168617e-01 7.812639e-07 -2.279933e-10 6.424491e-04
0.000873879    2.976497e-02 7.279228e-04 5.156130e-01 2.976402e-02 7.279196e-04 5.149704e-01 9.512404e-07 3.144591e-09 6.425795e-04
0.00105849     2.979184e-02 -6.071181e-04 5.142373e-01 2.979068e-02 -6.071175e-04 5.135946e-01 1.154978e-06 -6.493317e-10 6.427108e-04
0.00127986     2.983533e-02 -4.978753e-04 5.132375e-01 2.983393e-02 -4.978705e-04 5.125947e-01 1.399086e-06 -4.843937e-09 6.428459e-04
0.00154526     2.982504e-02 6.976384e-04 5.124774e-01 2.982335e-02 6.976378e-04 5.118344e-01 1.692377e-06 6.745086e-10 6.429869e-04
0.00186392     2.987460e-02 2.785511e-04 5.119470e-01 2.987255e-02 2.785468e-04 5.113039e-01 2.045074e-06 4.281228e-09 6.431366e-04
0.00224581     2.991758e-02 -7.221509e-04 5.115298e-01 2.991511e-02 -7.221462e-04 5.108865e-01 2.468352e-06 -4.655068e-09 6.432959e-04
0.0027048      2.994153e-02 -5.424006e-05 5.112372e-01 2.993855e-02 -5.423375e-05 5.105937e-01 2.977931e-06 -6.308711e-09 6.434669e-04
0.00325454     3.002324e-02 6.678815e-04 5.110389e-01 3.001965e-02 6.678743e-04 5.103953e-01 3.590604e-06 7.210591e-09 6.436502e-04
0.00391274     3.010062e-02 -1.274181e-04 5.109236e-01 3.009629e-02 -1.274240e-04 5.102797e-01 4.326276e-06 5.893661e-09 6.438470e-04
0.00470043     3.019408e-02 -5.618122e-04 5.108668e-01 3.018887e-02 -5.618017e-04 5.102227e-01 5.209597e-06 -1.049947e-08 6.440553e-04
0.00564408     3.025235e-02 2.833275e-04 5.108630e-01 3.024608e-02 2.833317e-04 5.102187e-01 6.268673e-06 -4.271420e-09 6.442717e-04
0.00678102     3.030816e-02 4.369538e-04 5.109411e-01 3.030061e-02 4.369408e-04 5.102966e-01 7.553279e-06 1.306455e-08 6.444917e-04
0.00815204     3.041392e-02 -3.753774e-04 5.110851e-01 3.040481e-02 -3.753755e-04 5.104404e-01 9.110806e-06 -1.945206e-09 6.447023e-04
0.00979236     3.073372e-02 -2.995562e-04 5.112677e-01 3.072272e-02 -2.995355e-04 5.106228e-01 1.099700e-05 -2.065015e-08 6.448778e-04
0.0117536      3.090403e-02 4.146682e-04 5.115415e-01 3.089075e-02 4.146633e-04 5.108965e-01 1.327649e-05 4.880649e-09 6.449887e-04
0.0141389      3.097173e-02 1.560273e-04 5.119440e-01 3.095568e-02 1.560113e-04 5.112990e-01 1.605202e-05 1.602294e-08 6.449957e-04
0.0170013      3.147975e-02 -4.345718e-04 5.123998e-01 3.146030e-02 -4.345466e-04 5.117550e-01 1.944648e-05 -2.520742e-08 6.448174e-04
0.0203216      3.237314e-02 -4.464749e-05 5.129003e-01 3.234965e-02 -4.461325e-05 5.122559e-01 2.349351e-05 -3.424190e-08 6.443471e-04
0.0241163      3.313643e-02 4.300634e-04 5.135058e-01 3.310819e-02 4.300440e-04 5.128624e-01 2.824385e-05 1.937071e-08 6.434739e-04
0.0283326      3.414312e-02 -7.649536e-05 5.141205e-01 3.410943e-02 -7.650525e-05 5.134784e-01 3.369690e-05 9.880510e-09 6.420671e-04
0.0331111      3.461628e-02 -4.159408e-04 5.149418e-01 3.457630e-02 -4.158827e-04 5.143018e-01 3.998778e-05 -5.810884e-08 6.399733e-04
0.0378896      3.743547e-02 1.469110e-04 5.151541e-01 3.738869e-02 1.469525e-04 5.145170e-01 4.678383e-05 -4.153324e-08 6.371020e-04
0.0426681      3.837504e-02 4.059904e-04 5.157058e-01 3.832129e-02 4.059654e-04 5.150722e-01 5.375064e-05 2.497798e-08 6.336122e-04
0.0474466      3.929216e-02 -2.880211e-04 5.162407e-01 3.923128e-02 -2.880110e-04 5.156112e-01 6.088135e-05 -1.015533e-08 6.295135e-04
0.0522251      4.027071e-02 -3.552367e-04 5.167187e-01 4.020254e-02 -3.551662e-04 5.160939e-01 6.816980e-05 -7.050668e-08 6.247998e-04
0.0570036      4.127392e-02 3.955868e-04 5.172103e-01 4.119829e-02 3.956015e-04 5.165908e-01 7.563042e-05 -1.465274e-08 6.194842e-04
0.0617821      4.234789e-02 2.670665e-04 5.176386e-01 4.226460e-02 2.670317e-04 5.170250e-01 8.328685e-05 3.485999e-08 6.135522e-04
0.0665606      4.343367e-02 -5.049950e-04 5.180539e-01 4.334253e-02 -5.049563e-04 5.174469e-01 9.114123e-05 -3.876514e-08 6.070034e-04
0.0713391      4.454286e-02 -1.493287e-04 5.184281e-01 4.444366e-02 -1.492575e-04 5.178282e-01 9.920556e-05 -7.116861e-08 5.998500e-04
0.0761175      4.569059e-02 5.604457e-04 5.187794e-01 4.558309e-02 5.604323e-04 5.181872e-01 1.074965e-04 1.336431e-08 5.921289e-04
0.080896       4.685863e-02 -4.083976e-06 5.190886e-01 4.674262e-02 -4.107416e-06 5.185047e-01 1.160098e-04 2.344006e-08 5.838628e-04
0.0856745      4.803446e-02 -6.098832e-04 5.193596e-01 4.790970e-02 -6.098123e-04 5.187845e-01 1.247520e-04 -7.086250e-08 5.750844e-04
0.090453       4.920988e-02 1.602215e-04 5.195994e-01 4.907617e-02 1.602784e-04 5.190336e-01 1.337152e-04 -5.693620e-08 5.657824e-04
0.0952315      5.040914e-02 5.920617e-04 5.197991e-01 5.026624e-02 5.920230e-04 5.192431e-01 1.429013e-04 3.866278e-08 5.559647e-04
0.10001        5.161005e-02 -3.458937e-04 5.199804e-01 5.145774e-02 -3.458900e-04 5.194348e-01 1.523096e-04 -3.654062e-09 5.456451e-04
0.10501        5.219773e-02 -5.281863e-04 5.206750e-01 5.203543e-02 -5.280905e-04 5.201404e-01 1.623023e-04 -9.584528e-08 5.345767e-04
0.10976        5.491102e-02 4.930103e-04 5.195128e-01 5.473878e-02 4.930394e-04 5.189898e-01 1.722430e-04 -2.904074e-08 5.230078e-04
0.11451        5.540291e-02 4.298302e-04 5.201692e-01 5.522064e-02 4.297831e-04 5.196580e-01 1.822683e-04 4.700955e-08 5.112293e-04
0.11926        5.667814e-02 -6.553753e-04 5.201463e-01 5.648564e-02 -6.553287e-04 5.196474e-01 1.924964e-04 -4.659068e-08 4.989700e-04
0.12401        5.794045e-02 -2.749913e-04 5.200573e-01 5.773753e-02 -2.748896e-04 5.195710e-01 2.029225e-04 -1.017372e-07 4.862267e-04
0.12876        5.921973e-02 7.689536e-04 5.199006e-01 5.900618e-02 7.689412e-04 5.194276e-01 2.135425e-04 1.246970e-08 4.730222e-04
0.13351        6.050365e-02 7.545669e-05 5.196740e-01 6.027930e-02 7.541770e-05 5.192146e-01 2.243453e-04 3.898924e-08 4.594038e-04
0.13826        6.181519e-02 -8.453870e-04 5.193580e-01 6.157992e-02 -8.452957e-04 5.189126e-01 2.352746e-04 -9.127060e-08 4.454515e-04
0.14301        6.307861e-02 1.497181e-04 5.189674e-01 6.283224e-02 1.498022e-04 5.185363e-01 2.463729e-04 -8.411572e-08 4.311123e-04
0.14776        6.435389e-02 8.454254e-04 5.184981e-01 6.409625e-02 8.453750e-04 5.180817e-01 2.576396e-04 5.042079e-08 4.164053e-04
0.15251        6.561980e-02 -4.111400e-04 5.179250e-01 6.535074e-02 -4.111423e-04 5.175236e-01 2.690587e-04 2.346177e-09 4.013485e-04
0.15726        6.686797e-02 -7.972201e-04 5.172637e-01 6.658735e-02 -7.970913e-04 5.168778e-01 2.806179e-04 -1.287380e-07 3.859457e-04
0.16201        6.808093e-02 6.526025e-04 5.165117e-01 6.778862e-02 6.526460e-04 5.161415e-01 2.923060e-04 -4.344566e-08 3.702047e-04
0.16676        6.926158e-02 6.664030e-04 5.156555e-01 6.895746e-02 6.663305e-04 5.153014e-01 3.041200e-04 7.250913e-08 3.541286e-04
0.17151        7.038997e-02 -8.893610e-04 5.147034e-01 7.007393e-02 -8.893093e-04 5.143657e-01 3.160488e-04 -5.175376e-08 3.377323e-04
0.17626        7.148940e-02 -4.661827e-04 5.136253e-01 7.116131e-02 -4.660409e-04 5.133043e-01 3.280851e-04 -1.418128e-07 3.210233e-04
0.18101        7.254172e-02 1.072854e-03 5.124569e-01 7.220151e-02 1.072839e-03 5.121529e-01 3.402104e-04 1.529712e-08 3.039938e-04
0.18576        7.357548e-02 1.837112e-04 5.111582e-01 7.322306e-02 1.836458e-04 5.108716e-01 3.524177e-04 6.547141e-08 2.866392e-04
0.19051        7.456912e-02 -1.197323e-03 5.097877e-01 7.420443e-02 -1.197207e-03 5.095187e-01 3.646855e-04 -1.157134e-07 2.689601e-04
0.19526        7.552502e-02 1.352500e-04 5.083458e-01 7.514803e-02 1.353685e-04 5.080949e-01 3.769859e-04 -1.184914e-07 2.509490e-04
0.20001        7.651017e-02 1.231261e-03 5.068288e-01 7.612088e-02 1.231186e-03 5.065962e-01 3.892833e-04 7.475033e-08 2.326070e-04
0.20501        7.709514e-02 -5.150813e-04 5.063667e-01 7.669292e-02 -5.150981e-04 5.061533e-01 4.022246e-04 1.688391e-08 2.134281e-04
0.210288       7.794295e-02 -1.121757e-03 5.048387e-01 7.752702e-02 -1.121570e-03 5.046459e-01 4.159231e-04 -1.863039e-07 1.927903e-04
0.215566       7.913670e-02 8.343309e-04 5.020592e-01 7.870715e-02 8.343987e-04 5.018880e-01 4.295487e-04 -6.783259e-08 1.711629e-04
0.221195       7.984002e-02 9.145554e-04 5.017480e-01 7.939597e-02 9.144373e-04 5.015997e-01 4.440466e-04 1.180772e-07 1.483271e-04
0.226825       8.108662e-02 -1.133424e-03 4.985970e-01 8.062824e-02 -1.133356e-03 4.984728e-01 4.583840e-04 -6.749166e-08 1.242708e-04
0.232052       8.208484e-02 -7.538486e-04 4.952066e-01 8.161360e-02 -7.536281e-04 4.951060e-01 4.712367e-04 -2.204795e-07 1.006016e-04
0.23728        8.278863e-02 1.439609e-03 4.955023e-01 8.230482e-02 1.439601e-03 4.954250e-01 4.838062e-04 8.542265e-09 7.728639e-05
0.242507       8.348291e-02 3.777579e-04 4.943102e-01 8.298673e-02 3.776543e-04 4.942566e-01 4.961724e-04 1.035681e-07 5.362131e-05
0.247299       8.404055e-02 -1.696943e-03 4.910605e-01 8.353356e-02 -1.696787e-03 4.910299e-01 5.069918e-04 -1.553489e-07 3.064225e-05
0.252091       8.443790e-02 9.596650e-05 4.922371e-01 8.392031e-02 9.614153e-05 4.922288e-01 5.175953e-04 -1.750271e-07 8.303464e-06
0.256883       8.495308e-02 1.780723e-03 4.914920e-01 8.442509e-02 1.780619e-03 4.915062e-01 5.279858e-04 1.044240e-07 -1.424216e-05
0.261675       8.519245e-02 -6.108416e-04 4.907765e-01 8.465433e-02 -6.108784e-04 4.908135e-01 5.381143e-04 3.678211e-08 -3.700392e-05
0.266467       8.525653e-02 -1.753108e-03 4.900772e-01 8.470858e-02 -1.752860e-03 4.901372e-01 5.479494e-04 -2.482002e-07 -6.000365e-05
0.271259       8.541403e-02 1.133128e-03 4.894618e-01 8.485652e-02 1.133222e-03 4.895450e-01 5.575102e-04 -9.374779e-08 -8.318630e-05
0.276051       8.552890e-02 1.539695e-03 4.888230e-01 8.496211e-02 1.539526e-03 4.889296e-01 5.667942e-04 1.683829e-07 -1.065752e-04
0.280842       8.595344e-02 -1.638411e-03 4.882673e-01 8.537760e-02 -1.638340e-03 4.883974e-01 5.758421e-04 -7.126652e-08 -1.301418e-04
0.285634       8.632404e-02 -1.194302e-03 4.877279e-01 8.573938e-02 -1.194014e-03 4.878818e-01 5.846547e-04 -2.874839e-07 -1.538879e-04
0.290426       8.627285e-02 2.070083e-03 4.874788e-01 8.567966e-02 2.070058e-03 4.876565e-01 5.931869e-04 2.466603e-08 -1.777284e-04
0.295218       8.601384e-02 6.524033e-04 4.871048e-01 8.541240e-02 6.522385e-04 4.873065e-01 6.014305e-04 1.647791e-07 -2.016493e-04
0.30001        8.566971e-02 -2.358239e-03 4.868701e-01 8.506030e-02 -2.358030e-03 4.870957e-01 6.094099e-04 -2.088567e-07 -2.256083e-04
0.304358       8.496382e-02 -1.596882e-04 4.843501e-01 8.434804e-02 -1.594225e-04 4.845984e-01 6.157769e-04 -2.656284e-07 -2.483467e-04
0.308706       8.517098e-02 2.580026e-03 4.866112e-01 8.454895e-02 2.579919e-03 4.868813e-01 6.220275e-04 1.062948e-07 -2.701643e-04
0.313053       8.452187e-02 -5.942907e-04 4.865384e-01 8.389385e-02 -5.943420e-04 4.868304e-01 6.280210e-04 5.135911e-08 -2.920142e-04
0.317401       8.391002e-02 -2.508093e-03 4.864908e-01 8.327624e-02 -2.507767e-03 4.868046e-01 6.337783e-04 -3.263824e-07 -3.138161e-04
0.321749       8.311181e-02 1.288056e-03 4.865301e-01 8.247253e-02 1.288226e-03 4.868656e-01 6.392819e-04 -1.706172e-07 -3.355316e-04
0.326097       8.221358e-02 2.284479e-03 4.865704e-01 8.156907e-02 2.284300e-03 4.869276e-01 6.445029e-04 1.789461e-07 -3.571798e-04
0.330203       8.107051e-02 -1.975345e-03 4.854259e-01 8.042177e-02 -1.975275e-03 4.858039e-01 6.487430e-04 -6.969140e-08 -3.780216e-04
0.334081       8.030724e-02 -1.968193e-03 4.855839e-01 7.965505e-02 -1.967840e-03 4.859815e-01 6.521867e-04 -3.529279e-07 -3.976155e-04
0.33796        7.975831e-02 2.676066e-03 4.871601e-01 7.910282e-02 2.676089e-03 4.875767e-01 6.554860e-04 -2.308377e-08 -4.166257e-04
0.34161        7.823678e-02 1.424278e-03 4.860176e-01 7.757882e-02 1.424090e-03 4.864525e-01 6.579619e-04 1.879558e-07 -4.348575e-04
0.34526        7.764744e-02 -3.237540e-03 4.876198e-01 7.698711e-02 -3.237341e-03 4.880723e-01 6.603325e-04 -1.996947e-07 -4.524989e-04
0.34891        7.635667e-02 -5.541355e-04 4.879472e-01 7.569418e-02 -5.538280e-04 4.884172e-01 6.624827e-04 -3.075346e-07 -4.700077e-04
0.35256        7.505603e-02 3.514558e-03 4.882578e-01 7.439163e-02 3.514433e-03 4.887452e-01 6.643992e-04 1.250818e-07 -4.873727e-04
0.355949       7.338577e-02 -2.534715e-04 4.870110e-01 7.272031e-02 -2.536072e-04 4.875148e-01 6.654624e-04 1.357686e-07 -5.038244e-04
0.359338       7.290995e-02 -3.658414e-03 4.889697e-01 7.224348e-02 -3.658122e-03 4.894893e-01 6.664666e-04 -2.917078e-07 -5.196217e-04
0.362728       7.138313e-02 1.288934e-03 4.893298e-01 7.071587e-02 1.289116e-03 4.898651e-01 6.672634e-04 -1.812763e-07 -5.352590e-04
0.365834       6.949735e-02 3.670903e-03 4.878778e-01 6.883010e-02 3.670679e-03 4.884277e-01 6.672458e-04 2.232989e-07 -5.499391e-04
0.368941       6.907392e-02 -2.460684e-03 4.901098e-01 6.840669e-02 -2.460679e-03 4.906737e-01 6.672241e-04 -4.343829e-09 -5.639290e-04
0.372048       6.741280e-02 -3.104941e-03 4.904340e-01 6.674576e-02 -3.104585e-03 4.910118e-01 6.670337e-04 -3.563075e-07 -5.777673e-04
0.375155       6.574821e-02 3.403907e-03 4.908340e-01 6.508154e-02 3.403929e-03 4.914255e-01 6.666625e-04 -2.167627e-08 -5.914220e-04
0.378262       6.407145e-02 2.306125e-03 4.912330e-01 6.340536e-02 2.305868e-03 4.918379e-01 6.660911e-04 2.574444e-07 -6.048979e-04
0.381369       6.235842e-02 -4.156479e-03 4.917109e-01 6.169313e-02 -4.156315e-03 4.923291e-01 6.652928e-04 -1.635353e-07 -6.181776e-04
0.384476       6.060839e-02 -1.217898e-03 4.921453e-01 5.994415e-02 -1.217564e-03 4.927766e-01 6.642404e-04 -3.339063e-07 -6.312756e-04
0.387583       5.879770e-02 4.673901e-03 4.926792e-01 5.813475e-02 4.673749e-03 4.933234e-01 6.629528e-04 1.524516e-07 -6.441734e-04
0.390689       5.689595e-02 -2.617051e-06 4.931821e-01 5.623453e-02 -2.813040e-06 4.938389e-01 6.614188e-04 1.959891e-07 -6.568832e-04
0.393796       5.487574e-02 -4.847502e-03 4.937306e-01 5.421611e-02 -4.847182e-03 4.944000e-01 6.596318e-04 -3.193173e-07 -6.693916e-04
0.396903       5.280685e-02 1.351745e-03 4.942209e-01 5.214926e-02 1.351964e-03 4.949026e-01 6.575837e-04 -2.188253e-07 -6.817103e-04
0.40001        5.060326e-02 4.658570e-03 4.947832e-01 4.994800e-02 4.658283e-03 4.954770e-01 6.552609e-04 2.863548e-07 -6.938122e-04
0.403343       4.848480e-02 -2.745069e-03 4.964390e-01 4.783190e-02 -2.745087e-03 4.971453e-01 6.529082e-04 1.835138e-08 -7.062114e-04
0.406796       4.498665e-02 -3.925494e-03 4.963404e-01 4.433652e-02 -3.925027e-03 4.970594e-01 6.501292e-04 -4.667841e-07 -7.189771e-04
0.410381       4.181419e-02 3.824376e-03 4.969249e-01 4.116728e-02 3.824410e-03 4.976568e-01 6.469080e-04 -3.409085e-08 -7.319058e-04
0.414115       3.833466e-02 2.927921e-03 4.973646e-01 3.769154e-02 2.927542e-03 4.981096e-01 6.431220e-04 3.784778e-07 -7.450213e-04
0.41785        3.430195e-02 -4.696467e-03 4.972476e-01 3.366342e-02 -4.696273e-03 4.980055e-01 6.385233e-04 -1.949252e-07 -7.579038e-04
0.421585       3.068862e-02 -1.713561e-03 4.976420e-01 3.005548e-02 -1.713098e-03 4.984123e-01 6.331441e-04 -4.626959e-07 -7.703443e-04
0.425319       2.686365e-02 5.336947e-03 4.980375e-01 2.623674e-02 5.336742e-03 4.988197e-01 6.269107e-04 2.048582e-07 -7.822162e-04
0.428876       2.264866e-02 4.366492e-04 4.976910e-01 2.202889e-02 4.363416e-04 4.984842e-01 6.197708e-04 3.075844e-07 -7.931238e-04
0.432432       1.928138e-02 -5.713651e-03 4.986777e-01 1.866950e-02 -5.713268e-03 4.994809e-01 6.118873e-04 -3.832561e-07 -8.031452e-04
0.435989       1.492246e-02 1.160955e-03 4.988863e-01 1.431933e-02 1.161245e-03 4.996988e-01 6.031362e-04 -2.894572e-07 -8.124612e-04
0.439546       1.040791e-02 5.531018e-03 4.990689e-01 9.814415e-03 5.530627e-03 4.998899e-01 5.934962e-04 3.908880e-07 -8.210561e-04
0.443103       5.858527e-03 -2.683272e-03 4.993275e-01 5.275485e-03 -2.683375e-03 5.001564e-01 5.830424e-04 1.025593e-07 -8.288958e-04
0.446659       1.277265e-03 -4.923425e-03 4.994991e-01 7.054682e-04 -4.922899e-03 5.003351e-01 5.717970e-04 -5.251248e-07 -8.359996e-04
0.450216       -3.446090e-03 4.108077e-03 4.996285e-01 -4.005914e-03 4.108145e-03 5.004709e-01 5.598247e-04 -6.737282e-08 -8.423585e-04
0.453773       -8.223182e-03 4.004210e-03 4.997002e-01 -8.770346e-03 4.003761e-03 5.005482e-01 5.471636e-04 4.489470e-07 -8.480024e-04
0.457329       -1.316084e-02 -5.301360e-03 4.997147e-01 -1.369470e-02 -5.301188e-03 5.005676e-01 5.338591e-04 -1.715377e-07 -8.529121e-04
0.460886       -1.813830e-02 -2.608066e-03 4.995930e-01 -1.865824e-02 -2.607532e-03 5.004501e-01 5.199414e-04 -5.343198e-07 -8.570987e-04
0.464443       -2.325188e-02 6.150628e-03 4.994896e-01 -2.375732e-02 6.150427e-03 5.003500e-01 5.054398e-04 2.013096e-07 -8.604109e-04
0.468          -2.844670e-02 9.756662e-04 4.993084e-01 -2.893711e-02 9.752982e-04 5.001712e-01 4.904058e-04 3.680030e-07 -8.627960e-04
0.471556       -3.368987e-02 -6.557241e-03 4.990095e-01 -3.416480e-02 -6.556811e-03 4.998738e-01 4.749302e-04 -4.295569e-07 -8.642382e-04
0.475113       -3.888551e-02 7.328483e-04 4.986297e-01 -3.934446e-02 7.332197e-04 4.994944e-01 4.589486e-04 -3.713991e-07 -8.647169e-04
0.47867        -4.386177e-02 6.560505e-03 4.982424e-01 -4.430423e-02 6.560069e-03 4.991065e-01 4.424582e-04 4.359171e-07 -8.641454e-04
0.482226       -4.855783e-02 -2.516500e-03 4.977974e-01 -4.898330e-02 -2.516648e-03 4.986599e-01 4.254691e-04 1.473527e-07 -8.624840e-04
0.485783       -5.307250e-02 -6.008065e-03 4.972908e-01 -5.348048e-02 -6.007471e-03 4.981505e-01 4.079863e-04 -5.934452e-07 -8.597571e-04
0.48934        -5.758883e-02 4.231073e-03 4.966876e-01 -5.797896e-02 4.231173e-03 4.975436e-01 3.901295e-04 -1.001644e-07 -8.560468e-04
0.492897       -6.212366e-02 4.995631e-03 4.960698e-01 -6.249583e-02 4.995102e-03 4.969214e-01 3.721751e-04 5.292066e-07 -8.516421e-04
0.496453       -6.633854e-02 -5.749435e-03 4.954176e-01 -6.669267e-02 -5.749294e-03 4.962642e-01 3.541268e-04 -1.409346e-07 -8.465973e-04
0.50001        -7.044545e-02 -3.506675e-03 4.946396e-01 -7.078127e-02 -3.506078e-03 4.954804e-01 3.358140e-04 -5.974553e-07 -8.407229e-04
0.503458       -7.468905e-02 6.857501e-03 4.938619e-01 -7.500661e-02 6.857302e-03 4.946960e-01 3.175613e-04 1.982782e-07 -8.340878e-04
0.506907       -7.819849e-02 1.580779e-03 4.931935e-01 -7.849749e-02 1.580353e-03 4.940199e-01 2.989985e-04 4.264477e-07 -8.264605e-04
0.510355       -8.227898e-02 -7.447502e-03 4.923695e-01 -8.255919e-02 -7.447055e-03 4.931875e-01 2.802078e-04 -4.465464e-07 -8.179602e-04
0.513803       -8.624507e-02 3.784797e-04 4.914990e-01 -8.650648e-02 3.789243e-04 4.923077e-01 2.614168e-04 -4.445312e-07 -8.086872e-04
0.517251       -9.014769e-02 7.446022e-03 4.906532e-01 -9.039039e-02 7.445580e-03 4.914520e-01 2.427050e-04 4.420643e-07 -7.987668e-04
0.5207         -9.368253e-02 -2.464412e-03 4.898045e-01 -9.390661e-02 -2.464615e-03 4.905927e-01 2.240854e-04 2.030092e-07 -7.882235e-04
0.524148       -9.718711e-02 -6.929148e-03 4.888204e-01 -9.739251e-02 -6.928512e-03 4.895974e-01 2.053983e-04 -6.352878e-07 -7.770140e-04
0.527596       -1.006592e-01 4.409550e-03 4.877712e-01 -1.008457e-01 4.409706e-03 4.885364e-01 1.865197e-04 -1.552936e-07 -7.651753e-04
0.531044       -1.042518e-01 5.901764e-03 4.868181e-01 -1.044193e-01 5.901185e-03 4.875708e-01 1.675454e-04 5.786572e-07 -7.526706e-04
0.534493       -1.081467e-01 -6.048787e-03 4.858491e-01 -1.082950e-01 -6.048688e-03 4.865887e-01 1.483040e-04 -9.949079e-08 -7.395501e-04
0.537941       -1.119085e-01 -4.373445e-03 4.848574e-01 -1.120373e-01 -4.372790e-03 4.855832e-01 1.287977e-04 -6.548973e-07 -7.258540e-04
0.541389       -1.155299e-01 7.342536e-03 4.838361e-01 -1.156389e-01 7.342337e-03 4.845477e-01 1.089401e-04 1.993916e-07 -7.116048e-04
0.544838       -1.192684e-01 2.443535e-03 4.828452e-01 -1.193572e-01 2.442993e-03 4.835420e-01 8.879913e-05 5.423127e-07 -6.968547e-04
0.548286       -1.226597e-01 -8.146520e-03 4.818022e-01 -1.227281e-01 -8.146100e-03 4.824839e-01 6.844046e-05 -4.203948e-07 -6.817051e-04
0.551734       -1.261533e-01 -2.704008e-04 4.807338e-01 -1.262011e-01 -2.698914e-04 4.814000e-01 4.780413e-05 -5.093209e-07 -6.662551e-04
0.555182       -1.298639e-01 8.398361e-03 4.797234e-01 -1.298909e-01 8.397864e-03 4.803739e-01 2.699031e-05 4.972274e-07 -6.505341e-04
0.558631       -1.335097e-01 -1.906517e-03 4.787313e-01 -1.335158e-01 -1.906827e-03 4.793658e-01 6.088837e-06 3.092029e-07 -6.344880e-04
0.562079       -1.371816e-01 -8.110432e-03 4.776994e-01 -1.371666e-01 -8.109748e-03 4.783176e-01 -1.500112e-05 -6.843808e-07 -6.182048e-04
0.565872       -1.394390e-01 4.308373e-03 4.760307e-01 -1.394008e-01 4.308540e-03 4.766311e-01 -3.825829e-05 -1.671049e-07 -6.003309e-04
0.569665       -1.443807e-01 7.054782e-03 4.754891e-01 -1.443189e-01 7.053997e-03 4.760713e-01 -6.177079e-05 7.851741e-07 -5.822491e-04
0.573458       -1.479639e-01 -6.314335e-03 4.744531e-01 -1.478786e-01 -6.314325e-03 4.750174e-01 -8.530626e-05 -9.357125e-09 -5.642592e-04
0.577251       -1.516866e-01 -5.572130e-03 4.733818e-01 -1.515778e-01 -5.571344e-03 4.739281e-01 -1.088501e-04 -7.863034e-07 -5.463183e-04
0.581044       -1.550939e-01 7.962601e-03 4.724219e-01 -1.549617e-01 7.962377e-03 4.729503e-01 -1.322098e-04 2.244941e-07 -5.283379e-04
