# Moment      
# CofR        : (0.000000e+00 0.000000e+00 0.000000e+00)
#
# Time        	total_x total_y total_z	pressure_x pressure_y pressure_z	viscous_x viscous_y viscous_z
2.20005e-05    -1.918560e-04 -3.109727e-03 -8.412062e-10 -1.918560e-04 -3.109725e-03 -8.403925e-10 9.272586e-11 -1.500288e-09 -8.136519e-13
3.64017e-05    -5.675504e-04 -2.505598e-03 -4.021345e-10 -5.675503e-04 -2.505595e-03 -4.019972e-10 -1.349110e-10 -2.839998e-09 -1.372881e-13
5.36833e-05    1.666636e-04 -2.543694e-03 -4.405445e-12 1.666637e-04 -2.543690e-03 -3.924353e-12 -5.698669e-11 -4.504010e-09 -4.810922e-13
7.44211e-05    8.918231e-05 -2.742129e-03 -3.859617e-11 8.918229e-05 -2.742123e-03 -3.773174e-11 1.478043e-11 -6.638817e-09 -8.644306e-13
9.93055e-05    -7.834483e-05 -2.740816e-03 -1.967027e-11 -7.834478e-05 -2.740806e-03 -1.878696e-11 -4.094254e-11 -9.196349e-09 -8.833118e-13
0.000129165    -7.317807e-05 -2.740308e-03 -3.592718e-12 -7.317795e-05 -2.740295e-03 -2.676987e-12 -1.202427e-10 -1.226537e-08 -9.157304e-13
0.00016499     1.070364e-04 -2.743783e-03 -2.887027e-13 1.070364e-04 -2.743767e-03 3.673725e-14 2.385920e-12 -1.594960e-08 -3.254399e-13
0.000207972    3.729072e-05 -2.744403e-03 -5.428866e-12 3.729065e-05 -2.744382e-03 -4.479407e-12 7.167885e-11 -2.037172e-08 -9.494586e-13
0.000259549    -1.011836e-04 -2.745251e-03 -7.393963e-12 -1.011835e-04 -2.745225e-03 -5.761579e-12 -9.944376e-11 -2.567715e-08 -1.632384e-12
0.000321429    -6.368676e-06 -2.744141e-03 -5.093572e-12 -6.368543e-06 -2.744109e-03 -3.363391e-12 -1.323207e-10 -3.204290e-08 -1.730181e-12
0.000395657    9.826461e-05 -2.747153e-03 2.765259e-12 9.826449e-05 -2.747113e-03 3.987237e-12 1.165590e-10 -3.968304e-08 -1.221978e-12
0.000484757    -1.995024e-05 -2.745605e-03 -5.528222e-12 -1.995032e-05 -2.745557e-03 -4.567217e-12 8.636456e-11 -4.885742e-08 -9.610048e-13
0.000591659    -8.505748e-05 -2.745686e-03 9.882353e-13 -8.505725e-05 -2.745626e-03 -1.541720e-13 -2.302083e-10 -5.986298e-08 1.142407e-12
0.000719941    4.172643e-05 -2.746732e-03 -1.035756e-12 4.172652e-05 -2.746659e-03 -2.483089e-12 -8.785050e-11 -7.307518e-08 1.447333e-12
0.000873879    6.753925e-05 -2.747982e-03 4.523065e-12 6.753896e-05 -2.747893e-03 2.132953e-12 2.887346e-10 -8.894847e-08 2.390112e-12
0.00105849     -5.607892e-05 -2.750348e-03 -4.581508e-12 -5.607890e-05 -2.750240e-03 -7.827515e-12 -1.756388e-11 -1.079959e-07 3.246007e-12
0.00127986     -4.626033e-05 -2.754279e-03 -7.458483e-12 -4.625993e-05 -2.754148e-03 -9.904249e-12 -4.038628e-10 -1.308666e-07 2.445766e-12
0.00154526     6.482606e-05 -2.752497e-03 3.564636e-12 6.482592e-05 -2.752339e-03 2.140401e-12 1.391518e-10 -1.582818e-07 1.424235e-12
0.00186392     2.570149e-05 -2.756179e-03 1.079319e-12 2.570101e-05 -2.755988e-03 2.091878e-14 4.800666e-10 -1.912708e-07 1.058400e-12
0.00224581     -6.686405e-05 -2.759911e-03 7.691671e-12 -6.686370e-05 -2.759681e-03 7.047211e-12 -3.538536e-10 -2.308413e-07 6.444599e-13
0.0027048      -5.276936e-06 -2.760682e-03 -1.628896e-11 -5.276404e-06 -2.760404e-03 -1.615507e-11 -5.327825e-10 -2.784465e-07 -1.338964e-13
0.00325454     6.104851e-05 -2.767145e-03 -6.568882e-11 6.104793e-05 -2.766810e-03 -7.082540e-11 5.832275e-10 -3.356610e-07 5.136576e-12
0.00391274     -1.191507e-05 -2.773048e-03 -7.664075e-12 -1.191552e-05 -2.772644e-03 -1.552542e-11 4.504462e-10 -4.043576e-07 7.861340e-12
0.00470043     -5.134739e-05 -2.779955e-03 -2.962212e-11 -5.134644e-05 -2.779468e-03 -3.162748e-11 -9.490047e-10 -4.868205e-07 2.005356e-12
0.00564408     2.536921e-05 -2.784808e-03 -9.686523e-11 2.536950e-05 -2.784223e-03 -7.526347e-11 -2.921512e-10 -5.858077e-07 -2.160175e-11
0.00678102     4.028208e-05 -2.785573e-03 -3.987359e-11 4.028072e-05 -2.784867e-03 -1.906955e-11 1.353962e-09 -7.054859e-07 -2.080403e-11
0.00815204     -3.508106e-05 -2.792722e-03 -4.478679e-12 -3.508098e-05 -2.791871e-03 3.716084e-12 -8.245638e-11 -8.504771e-07 -8.194763e-12
0.00979236     -2.783253e-05 -2.817912e-03 -1.185670e-11 -2.783071e-05 -2.816886e-03 -6.054763e-12 -1.822499e-09 -1.025689e-06 -5.801937e-12
0.0117536      3.828291e-05 -2.827029e-03 -3.757551e-11 3.828237e-05 -2.825792e-03 -3.344374e-11 5.453992e-10 -1.237166e-06 -4.131774e-12
0.0141389      1.615864e-05 -2.828489e-03 -7.142043e-11 1.615641e-05 -2.826995e-03 -4.420695e-11 2.233148e-09 -1.493886e-06 -2.721349e-11
0.0170013      -3.986000e-05 -2.866763e-03 -2.836131e-11 -3.985849e-05 -2.864956e-03 -1.084917e-11 -1.501414e-09 -1.806327e-06 -1.751214e-11
0.0203216      -4.866186e-06 -2.938501e-03 1.694190e-11 -4.863645e-06 -2.936323e-03 1.475163e-11 -2.540181e-09 -2.177193e-06 2.190273e-12
0.0241163      3.982953e-05 -2.993228e-03 -1.272447e-11 3.982702e-05 -2.990618e-03 -4.092599e-11 2.510221e-09 -2.609661e-06 2.820152e-11
0.0283326      -4.842433e-06 -3.067145e-03 1.436818e-11 -4.844904e-06 -3.064041e-03 -2.492645e-11 2.470711e-09 -3.103855e-06 3.929464e-11
0.0331111      -3.749274e-05 -3.086900e-03 1.954267e-11 -3.748909e-05 -3.083232e-03 -3.385693e-11 -3.657490e-09 -3.668439e-06 5.339960e-11
0.0378896      1.330702e-05 -3.316689e-03 6.955777e-11 1.330919e-05 -3.312415e-03 7.330941e-12 -2.168525e-09 -4.273838e-06 6.222683e-11
0.0426681      3.701446e-05 -3.371808e-03 5.687618e-11 3.701041e-05 -3.366920e-03 -1.009387e-11 4.047414e-09 -4.888156e-06 6.697005e-11
0.0474466      -2.537282e-05 -3.424240e-03 7.288341e-11 -2.537347e-05 -3.418729e-03 -2.251220e-11 6.487831e-10 -5.510869e-06 9.539561e-11
0.0522251      -3.146792e-05 -3.478534e-03 7.967067e-11 -3.146309e-05 -3.472395e-03 -1.464194e-11 -4.833835e-09 -6.139183e-06 9.431262e-11
0.0570036      3.586961e-05 -3.532720e-03 8.468393e-11 3.586932e-05 -3.525945e-03 -1.030441e-11 2.867030e-10 -6.775141e-06 9.498834e-11
0.0617821      2.415170e-05 -3.586081e-03 8.915170e-11 2.414692e-05 -3.578661e-03 -1.506345e-12 4.780046e-09 -7.420224e-06 9.065805e-11
0.0665606      -4.444619e-05 -3.635957e-03 7.031632e-11 -4.444435e-05 -3.627883e-03 -1.638027e-11 -1.844789e-09 -8.073939e-06 8.669659e-11
0.0713391      -1.276076e-05 -3.685043e-03 6.897330e-11 -1.275602e-05 -3.676306e-03 -1.322438e-11 -4.740799e-09 -8.736310e-06 8.219768e-11
0.0761175      5.055332e-05 -3.736359e-03 6.810483e-11 5.055029e-05 -3.726950e-03 -9.727633e-12 3.029247e-09 -9.408963e-06 7.783247e-11
0.080896       2.405923e-08 -3.785623e-03 6.146533e-11 2.006550e-08 -3.775533e-03 -1.116277e-11 3.993727e-09 -1.009083e-05 7.262811e-11
0.0856745      -5.355634e-05 -3.834731e-03 6.023044e-11 -5.355185e-05 -3.823950e-03 -4.322100e-12 -4.486299e-09 -1.078112e-05 6.455254e-11
0.090453       1.495958e-05 -3.881942e-03 5.258378e-11 1.496277e-05 -3.870462e-03 -6.875105e-12 -3.184226e-09 -1.147929e-05 5.945888e-11
0.0952315      5.282314e-05 -3.929133e-03 5.486178e-11 5.281773e-05 -3.916948e-03 -4.881081e-12 5.417518e-09 -1.218507e-05 5.974286e-11
0.10001        -3.044263e-05 -3.973415e-03 5.218039e-11 -3.044424e-05 -3.960517e-03 -3.503571e-12 1.610047e-09 -1.289810e-05 5.568396e-11
0.10501        -4.602939e-05 -3.959242e-03 4.612328e-11 -4.602277e-05 -3.945598e-03 -3.459246e-12 -6.620547e-09 -1.364362e-05 4.958253e-11
0.10976        4.388811e-05 -4.134205e-03 4.715349e-11 4.388872e-05 -4.119826e-03 -4.566088e-14 -6.145043e-10 -1.437852e-05 4.719915e-11
0.11451        3.781643e-05 -4.112233e-03 4.622610e-11 3.781027e-05 -4.097126e-03 -5.699787e-12 6.161037e-09 -1.510760e-05 5.192589e-11
0.11926        -5.752827e-05 -4.157315e-03 4.759285e-11 -5.752606e-05 -4.141473e-03 -3.635098e-12 -2.214426e-09 -1.584124e-05 5.122795e-11
0.12401        -2.348075e-05 -4.199827e-03 4.102373e-11 -2.347367e-05 -4.183248e-03 3.301998e-13 -7.081958e-09 -1.657865e-05 4.069353e-11
0.12876        6.741230e-05 -4.241385e-03 3.692801e-11 6.740923e-05 -4.224066e-03 -9.678034e-13 3.070809e-09 -1.731892e-05 3.789581e-11
0.13351        6.137374e-06 -4.281923e-03 4.354796e-11 6.131993e-06 -4.263863e-03 -4.598222e-12 5.380652e-09 -1.806011e-05 4.814618e-11
0.13826        -7.339216e-05 -4.324898e-03 1.514020e-11 -7.338609e-05 -4.306103e-03 -6.515557e-12 -6.065192e-09 -1.879437e-05 2.165576e-11
0.14301        1.412230e-05 -4.360730e-03 1.311886e-11 1.412767e-05 -4.341202e-03 4.633956e-12 -5.369650e-09 -1.952823e-05 8.484904e-12
0.14776        7.378477e-05 -4.394824e-03 2.064047e-11 7.377826e-05 -4.374563e-03 1.368047e-12 6.515472e-09 -2.026064e-05 1.927242e-11
0.15251        -3.572942e-05 -4.428300e-03 2.817162e-11 -3.573181e-05 -4.407311e-03 -7.635985e-12 2.387850e-09 -2.098935e-05 3.580760e-11
0.15726        -6.844569e-05 -4.459592e-03 2.101362e-11 -6.843656e-05 -4.437879e-03 -4.052122e-12 -9.126056e-09 -2.171298e-05 2.506575e-11
0.16201        5.717098e-05 -4.488145e-03 1.431701e-11 5.717252e-05 -4.465714e-03 7.238909e-12 -1.540612e-09 -2.243031e-05 7.078098e-12
0.16676        5.732316e-05 -4.513081e-03 3.022952e-11 5.731455e-05 -4.489940e-03 -6.685688e-12 8.615395e-09 -2.314038e-05 3.691521e-11
0.17151        -7.698727e-05 -4.533282e-03 4.948241e-11 -7.698494e-05 -4.509440e-03 -1.029572e-11 -2.336730e-09 -2.384179e-05 5.977814e-11
0.17626        -3.937998e-05 -4.551175e-03 2.971796e-11 -3.936981e-05 -4.526641e-03 5.110530e-12 -1.017123e-08 -2.453382e-05 2.460743e-11
0.18101        9.289086e-05 -4.567308e-03 1.797499e-11 9.288721e-05 -4.542094e-03 6.244364e-12 3.645231e-09 -2.521496e-05 1.173063e-11
0.18576        1.504357e-05 -4.581528e-03 4.453718e-11 1.503569e-05 -4.555644e-03 -1.534601e-11 7.885434e-09 -2.588415e-05 5.988319e-11
0.19051        -1.026951e-04 -4.592702e-03 5.003207e-11 -1.026871e-04 -4.566161e-03 -1.181800e-11 -7.981239e-09 -2.654065e-05 6.185007e-11
0.19526        1.265587e-05 -4.600888e-03 2.321436e-11 1.266395e-05 -4.573705e-03 1.663385e-11 -8.085478e-09 -2.718360e-05 6.580504e-12
0.20001        1.055481e-04 -4.612455e-03 3.009477e-11 1.055393e-04 -4.584643e-03 7.970870e-12 8.760514e-09 -2.781224e-05 2.212390e-11
0.20501        -4.494437e-05 -4.579250e-03 5.609504e-11 -4.494789e-05 -4.550789e-03 -2.619853e-11 3.519031e-09 -2.846097e-05 8.229357e-11
0.210288       -9.538298e-05 -4.566264e-03 4.144811e-11 -9.536890e-05 -4.537125e-03 -9.008931e-13 -1.408505e-08 -2.913925e-05 4.234900e-11
0.215566       7.249396e-05 -4.584602e-03 -6.996429e-13 7.249748e-05 -4.554797e-03 2.873303e-11 -3.516479e-09 -2.980459e-05 -2.943267e-11
0.221195       7.773653e-05 -4.551474e-03 2.692792e-11 7.772396e-05 -4.520972e-03 -6.717946e-12 1.256835e-08 -3.050239e-05 3.364587e-11
0.226825       -9.743823e-05 -4.573800e-03 5.902850e-11 -9.743449e-05 -4.542618e-03 -4.139494e-11 -3.741548e-09 -3.118214e-05 1.004234e-10
0.232052       -6.288116e-05 -4.575878e-03 2.568817e-11 -6.286439e-05 -4.544105e-03 2.057761e-11 -1.677508e-08 -3.177293e-05 5.110555e-12
0.23728        1.236929e-04 -4.529896e-03 -8.128498e-12 1.236896e-04 -4.497560e-03 4.933590e-11 3.319567e-09 -3.233555e-05 -5.746440e-11
0.242507       3.062438e-05 -4.500944e-03 4.328560e-12 3.061306e-05 -4.468072e-03 -4.223183e-11 1.132317e-08 -3.287229e-05 4.656038e-11
0.247299       -1.448145e-04 -4.483469e-03 1.975119e-11 -1.448034e-04 -4.450148e-03 -4.200464e-11 -1.117926e-08 -3.332092e-05 6.175583e-11
0.252091       1.048028e-05 -4.431534e-03 -1.596129e-11 1.049282e-05 -4.397788e-03 3.612791e-11 -1.253530e-08 -3.374654e-05 -5.208919e-11
0.256883       1.515962e-04 -4.393413e-03 -2.361642e-11 1.515845e-04 -4.359261e-03 2.193690e-11 1.171750e-08 -3.415134e-05 -4.555333e-11
0.261675       -5.293191e-05 -4.347967e-03 3.081320e-11 -5.293762e-05 -4.313432e-03 -3.633784e-11 5.708070e-09 -3.453510e-05 6.715104e-11
0.266467       -1.479451e-04 -4.288377e-03 -4.287021e-12 -1.479263e-04 -4.253482e-03 -2.064576e-11 -1.882010e-08 -3.489510e-05 1.635874e-11
0.271259       9.788303e-05 -4.228196e-03 -6.856409e-11 9.788823e-05 -4.192965e-03 4.315914e-11 -5.198419e-09 -3.523099e-05 -1.117232e-10
0.276051       1.296389e-04 -4.156581e-03 -1.736055e-11 1.296215e-04 -4.121039e-03 2.153785e-11 1.733477e-08 -3.554161e-05 -3.889840e-11
0.280842       -1.398182e-04 -4.082897e-03 1.138908e-11 -1.398147e-04 -4.047070e-03 -5.116538e-11 -3.495108e-09 -3.582662e-05 6.255446e-11
0.285634       -9.895348e-05 -4.012282e-03 -6.158060e-11 -9.893130e-05 -3.976196e-03 -2.370416e-12 -2.218053e-08 -3.608605e-05 -5.921018e-11
0.290426       1.759775e-04 -3.933132e-03 -1.063373e-10 1.759725e-04 -3.896814e-03 4.761153e-11 4.946559e-09 -3.631862e-05 -1.539488e-10
0.295218       5.371300e-05 -3.840162e-03 -8.977663e-12 5.369611e-05 -3.803636e-03 6.830871e-14 1.689663e-08 -3.652635e-05 -9.045972e-12
0.30001        -1.990466e-04 -3.745617e-03 -2.246434e-11 -1.990314e-04 -3.708907e-03 -5.757879e-11 -1.527198e-08 -3.670951e-05 3.511445e-11
0.304358       -1.198664e-05 -3.620237e-03 -1.170204e-10 -1.196674e-05 -3.583424e-03 6.968107e-12 -1.990153e-08 -3.681315e-05 -1.239885e-10
0.308706       2.185847e-04 -3.570073e-03 -8.161621e-11 2.185724e-04 -3.533171e-03 6.305912e-11 1.227748e-08 -3.690185e-05 -1.446753e-10
0.313053       -5.136657e-05 -3.456648e-03 -5.237529e-12 -5.137406e-05 -3.419682e-03 3.731717e-12 7.487466e-09 -3.696626e-05 -8.969246e-12
0.317401       -2.112155e-04 -3.341078e-03 -1.382279e-10 -2.111904e-04 -3.304072e-03 -8.307086e-11 -2.502694e-08 -3.700598e-05 -5.515699e-11
0.321749       1.096225e-04 -3.216486e-03 -1.658551e-10 1.096339e-04 -3.179465e-03 3.785758e-11 -1.143023e-08 -3.702155e-05 -2.037127e-10
0.326097       1.929338e-04 -3.082690e-03 -2.963333e-11 1.929149e-04 -3.045676e-03 9.445614e-11 1.888969e-08 -3.701480e-05 -1.240895e-10
0.330203       -1.679837e-04 -2.923850e-03 -6.555368e-11 -1.679811e-04 -2.886886e-03 -5.636117e-11 -2.655953e-09 -3.696334e-05 -9.192507e-12
0.334081       -1.667532e-04 -2.810905e-03 -2.159327e-10 -1.667259e-04 -2.774024e-03 -1.053647e-10 -2.726568e-08 -3.688091e-05 -1.105679e-10
0.33796        2.280084e-04 -2.719950e-03 -1.312465e-10 2.280071e-04 -2.683158e-03 6.656469e-11 1.388173e-09 -3.679124e-05 -1.978112e-10
0.34161        1.200431e-04 -2.549666e-03 1.182643e-11 1.200234e-04 -2.512998e-03 9.920978e-11 1.974905e-08 -3.666822e-05 -8.738335e-11
0.34526        -2.759366e-04 -2.461521e-03 -1.422529e-10 -2.759225e-04 -2.424979e-03 -1.001551e-10 -1.405546e-08 -3.654153e-05 -4.209773e-11
0.34891        -4.646433e-05 -2.315503e-03 -2.669674e-10 -4.644081e-05 -2.279101e-03 -9.266868e-11 -2.351733e-08 -3.640224e-05 -1.742988e-10
0.35256        3.002215e-04 -2.167537e-03 -7.514086e-11 3.002073e-04 -2.131287e-03 1.135149e-10 1.419826e-08 -3.625024e-05 -1.886558e-10
0.355949       -2.292758e-05 -1.974269e-03 3.740120e-13 -2.294256e-05 -1.938201e-03 5.837191e-11 1.497870e-08 -3.606854e-05 -5.799789e-11
0.359338       -3.128789e-04 -1.904063e-03 -2.207929e-10 -3.128565e-04 -1.868175e-03 -1.432378e-10 -2.238456e-08 -3.588793e-05 -7.755509e-11
0.362728       1.114358e-04 -1.754252e-03 -2.499207e-10 1.114485e-04 -1.718555e-03 -4.566277e-11 -1.270859e-08 -3.569705e-05 -2.042580e-10
0.365834       3.141918e-04 -1.546350e-03 -7.097530e-12 3.141691e-04 -1.510869e-03 1.490637e-10 2.263093e-08 -3.548109e-05 -1.561612e-10
0.368941       -2.117784e-04 -1.498246e-03 -5.593043e-11 -2.117810e-04 -1.462976e-03 6.016270e-12 2.604133e-09 -3.527074e-05 -6.194670e-11
0.372048       -2.669173e-04 -1.350224e-03 -2.966270e-10 -2.668891e-04 -1.315171e-03 -1.521904e-10 -2.822245e-08 -3.505288e-05 -1.444366e-10
0.375155       2.933226e-04 -1.201074e-03 -1.969149e-10 2.933215e-04 -1.166247e-03 2.650167e-11 1.118084e-09 -3.482709e-05 -2.234166e-10
0.378262       1.974624e-04 -1.052217e-03 -1.111376e-11 1.974369e-04 -1.017624e-03 1.140192e-10 2.550676e-08 -3.459293e-05 -1.251330e-10
0.381369       -3.592539e-04 -9.006705e-04 -1.309787e-10 -3.592423e-04 -8.663201e-04 -6.174765e-11 -1.156296e-08 -3.435037e-05 -6.923106e-11
0.384476       -1.053145e-04 -7.474584e-04 -2.588389e-10 -1.052879e-04 -7.133591e-04 -7.882108e-11 -2.661687e-08 -3.409923e-05 -1.800178e-10
0.387583       4.047315e-04 -5.935182e-04 -1.382041e-10 4.047153e-04 -5.596795e-04 6.233452e-11 1.624778e-08 -3.383865e-05 -2.005386e-10
0.390689       -1.379768e-06 -4.384752e-04 -3.792878e-11 -1.399727e-06 -4.049069e-04 3.394077e-11 1.995943e-08 -3.356831e-05 -7.186955e-11
0.393796       -4.206753e-04 -2.818105e-04 -1.639231e-10 -4.206497e-04 -2.485229e-04 -7.565985e-11 -2.563624e-08 -3.328759e-05 -8.826321e-11
0.396903       1.174954e-04 -1.226290e-04 -2.252349e-10 1.175122e-04 -8.963297e-05 -2.017768e-11 -1.684259e-08 -3.299605e-05 -2.050572e-10
0.40001        4.052065e-04 3.782442e-05 -8.844169e-11 4.051786e-04 7.051782e-05 6.024538e-11 2.789826e-08 -3.269340e-05 -1.486871e-10
0.403343       -2.405136e-04 1.433995e-04 -5.688037e-11 -2.405175e-04 1.757809e-04 -3.365895e-11 3.945547e-09 -3.238147e-05 -2.322142e-11
0.406796       -3.427221e-04 3.736476e-04 -1.842770e-10 -3.426829e-04 4.056914e-04 -4.975713e-11 -3.928076e-08 -3.204378e-05 -1.345198e-10
0.410381       3.349569e-04 5.638699e-04 -2.228851e-10 3.349575e-04 5.955534e-04 4.116732e-11 -6.385507e-10 -3.168355e-05 -2.640524e-10
0.414115       2.554203e-04 7.635680e-04 -9.526689e-11 2.553842e-04 7.948652e-04 1.885358e-11 3.612402e-08 -3.129723e-05 -1.141205e-10
0.41785        -4.133787e-04 1.014900e-03 -8.162191e-11 -4.133633e-04 1.045785e-03 -5.325096e-11 -1.535006e-08 -3.088417e-05 -2.837095e-11
0.421585       -1.502856e-04 1.213477e-03 -2.255699e-10 -1.502462e-04 1.243930e-03 -1.780175e-11 -3.940451e-08 -3.045265e-05 -2.077682e-10
0.425319       4.708718e-04 1.418442e-03 -1.959586e-10 4.708512e-04 1.448447e-03 5.466823e-11 2.068228e-08 -3.000510e-05 -2.506268e-10
0.428876       3.726679e-05 1.678671e-03 -9.181709e-11 3.723693e-05 1.708218e-03 -1.199171e-11 2.985765e-08 -2.954728e-05 -7.982538e-11
0.432432       -5.078990e-04 1.817591e-03 -1.442167e-10 -5.078663e-04 1.846680e-03 -5.560816e-11 -3.270527e-08 -2.908813e-05 -8.860851e-11
0.435989       1.042370e-04 2.031662e-03 -1.633549e-10 1.042613e-04 2.060279e-03 -4.455838e-11 -2.427171e-08 -2.861751e-05 -1.187965e-10
0.439546       4.918745e-04 2.250863e-03 1.947936e-11 4.918365e-04 2.278998e-03 -1.832054e-11 3.794019e-08 -2.813457e-05 3.779990e-11
0.443103       -2.413046e-04 2.469059e-03 3.711261e-12 -2.413168e-04 2.496697e-03 -1.448780e-10 1.218275e-08 -2.763787e-05 1.485893e-10
0.446659       -4.418414e-04 2.689720e-03 -8.946496e-11 -4.417967e-04 2.716846e-03 -1.308406e-10 -4.468416e-08 -2.712595e-05 4.137564e-11
0.450216       3.694173e-04 2.912849e-03 -9.815690e-11 3.694196e-04 2.939445e-03 -9.888031e-12 -2.288555e-09 -2.659667e-05 -8.826887e-11
0.453773       3.596755e-04 3.138005e-03 -5.318783e-11 3.596302e-04 3.164053e-03 -5.181629e-11 4.537631e-08 -2.604772e-05 -1.371534e-12
0.457329       -4.797366e-04 3.364206e-03 -1.443567e-10 -4.797249e-04 3.389684e-03 -1.625279e-10 -1.169372e-08 -2.547806e-05 1.817123e-11
0.460886       -2.356722e-04 3.595688e-03 -1.762514e-10 -2.356269e-04 3.620574e-03 -4.413283e-11 -4.523174e-08 -2.488526e-05 -1.321186e-10
0.464443       5.588086e-04 3.818532e-03 -1.666609e-10 5.587858e-04 3.842803e-03 -4.028454e-12 2.283040e-08 -2.427033e-05 -1.626324e-10
0.468          8.893828e-05 4.049252e-03 -1.793016e-10 8.890023e-05 4.072887e-03 -1.368911e-10 3.804754e-08 -2.363431e-05 -4.241051e-11
0.471556       -5.994618e-04 4.276749e-03 -2.744549e-10 -5.994253e-04 4.299723e-03 -1.627817e-10 -3.650431e-08 -2.297400e-05 -1.116732e-10
0.475113       6.657414e-05 4.514923e-03 -5.409231e-11 6.660542e-05 4.537210e-03 8.865406e-11 -3.128544e-08 -2.228702e-05 -1.427464e-10
0.47867        6.054504e-04 4.754686e-03 -1.200386e-10 6.054063e-04 4.776258e-03 -6.210112e-11 4.404888e-08 -2.157170e-05 -5.793747e-11
0.482226       -2.315735e-04 4.978185e-03 -3.497053e-10 -2.315901e-04 4.999013e-03 -3.375907e-10 1.659045e-08 -2.082803e-05 -1.211462e-11
0.485783       -5.563142e-04 5.199654e-03 -1.434134e-10 -5.562610e-04 5.219706e-03 -1.103178e-10 -5.320375e-08 -2.005266e-05 -3.309556e-11
0.48934        3.955415e-04 5.440203e-03 6.859422e-11 3.955484e-04 5.459454e-03 6.264839e-11 -6.930256e-09 -1.925054e-05 5.945830e-12
0.492897       4.668416e-04 5.685465e-03 -2.794461e-11 4.667890e-04 5.703883e-03 -1.161996e-10 5.263806e-08 -1.841751e-05 8.825502e-11
0.496453       -5.383620e-04 5.926213e-03 -2.430607e-11 -5.383509e-04 5.943761e-03 -2.068716e-10 -1.106446e-08 -1.754792e-05 1.825655e-10
0.50001        -3.257607e-04 6.168853e-03 2.111002e-10 -3.257061e-04 6.185496e-03 1.102770e-11 -5.462299e-08 -1.664281e-05 2.000725e-10
0.503458       6.489863e-04 6.440277e-03 2.664012e-10 6.489647e-04 6.456004e-03 9.586523e-12 2.154614e-08 -1.572746e-05 2.568147e-10
0.506907       1.476488e-04 6.626381e-03 1.997574e-10 1.476053e-04 6.641168e-03 -1.894749e-10 4.353936e-08 -1.478717e-05 3.892323e-10
0.510355       -7.048412e-04 6.852847e-03 3.241196e-10 -7.048010e-04 6.866661e-03 -7.984175e-11 -4.015083e-08 -1.381396e-05 4.039614e-10
0.513803       4.003828e-05 7.074675e-03 4.092695e-10 4.007826e-05 7.087481e-03 3.677665e-11 -3.998108e-08 -1.280577e-05 3.724928e-10
0.517251       7.104195e-04 7.294932e-03 4.142516e-10 7.103738e-04 7.306694e-03 -5.112750e-11 4.571238e-08 -1.176248e-05 4.653791e-10
0.5207         -2.362879e-04 7.510211e-03 4.421539e-10 -2.363104e-04 7.520905e-03 -1.509247e-10 2.245022e-08 -1.069447e-05 5.930787e-10
0.524148       -6.623455e-04 7.715092e-03 4.324509e-10 -6.622864e-04 7.724691e-03 -1.025756e-10 -5.904975e-08 -9.598752e-06 5.350266e-10
0.527596       4.271702e-04 7.921899e-03 4.657844e-10 4.271824e-04 7.930370e-03 -1.208617e-11 -1.218152e-08 -8.470919e-06 4.778706e-10
0.531044       5.698747e-04 8.129903e-03 5.460015e-10 5.698158e-04 8.137214e-03 -2.294852e-11 5.893913e-08 -7.310981e-06 5.689500e-10
0.534493       -5.853412e-04 8.348442e-03 5.347281e-10 -5.853330e-04 8.354556e-03 -6.388148e-11 -8.273319e-09 -6.114597e-06 5.986096e-10
0.537941       -4.227893e-04 8.555669e-03 5.502395e-10 -4.227262e-04 8.560552e-03 4.227814e-11 -6.314131e-08 -4.883377e-06 5.079614e-10
0.541389       7.165620e-04 8.763066e-03 6.034686e-10 7.165410e-04 8.766685e-03 6.875050e-11 2.097054e-08 -3.618715e-06 5.347181e-10
0.544838       2.388354e-04 8.970989e-03 5.686720e-10 2.387808e-04 8.973313e-03 -6.429017e-11 5.461684e-08 -2.323861e-06 6.329622e-10
0.548286       -7.976762e-04 9.167198e-03 6.182999e-10 -7.976354e-04 9.168197e-03 7.353717e-12 -4.078208e-08 -9.993808e-07 6.109461e-10
0.551734       -2.548805e-05 9.363443e-03 4.325225e-10 -2.543887e-05 9.363092e-03 -3.781185e-11 -4.917480e-08 3.509216e-07 4.703343e-10
0.555182       8.263772e-04 9.555227e-03 5.189313e-10 8.263257e-04 9.553502e-03 -1.902189e-11 5.144437e-08 1.724353e-06 5.379532e-10
0.558631       -1.874269e-04 9.744081e-03 8.064683e-10 -1.874603e-04 9.740966e-03 1.448279e-10 3.345695e-08 3.115110e-06 6.616404e-10
0.562079       -8.021482e-04 9.938973e-03 5.409573e-10 -8.020831e-04 9.934449e-03 -3.242072e-12 -6.509027e-08 4.523963e-06 5.441994e-10
0.565872       4.298676e-04 1.000130e-02 2.486214e-10 4.298799e-04 9.995222e-03 -1.566620e-10 -1.231465e-08 6.080360e-06 4.052834e-10
0.569665       7.025470e-04 1.032887e-02 6.479056e-10 7.024631e-04 1.032121e-02 1.346317e-10 8.396689e-08 7.665149e-06 5.132739e-10
0.573458       -6.317659e-04 1.052731e-02 7.452475e-10 -6.317698e-04 1.051805e-02 1.170686e-10 3.901722e-09 9.258790e-06 6.281789e-10
0.577251       -5.549816e-04 1.073287e-02 5.229428e-10 -5.549072e-04 1.072201e-02 -4.850819e-11 -7.448910e-08 1.086414e-05 5.714510e-10
0.581044       8.017309e-04 1.093601e-02 6.042965e-10 8.017027e-04 1.092353e-02 -5.537325e-11 2.819044e-08 1.247889e-05 6.596698e-10
