x,y,z,alpha.water
0,0.15,-0.125,1
-3.87941e-19,0.15,-0.120834,1
-7.75882e-19,0.15,-0.116667,1
-5.42101e-20,0.15,-0.116667,1
-4.87891e-19,0.15,-0.1125,1
-9.21572e-19,0.15,-0.108333,1
-8.94467e-19,0.15,-0.104166,1
-8.67362e-19,0.15,-0.1,1
-7.31836e-19,0.15,-0.0958333,1
-5.96311e-19,0.15,-0.0916667,1
-3.52366e-19,0.15,-0.0875,1
-1.0842e-19,0.15,-0.0833333,1
-5.42101e-20,0.15,-0.08125,1
0,0.15,-0.0791667,1
0,0.15,-0.0781251,1
0,0.15,-0.0770834,1
1.6263e-19,0.15,-0.0760417,1
3.25261e-19,0.15,-0.075,1
4.33681e-19,0.15,-0.0739583,1
5.42101e-19,0.15,-0.0729166,1
6.50521e-19,0.15,-0.0718749,1
7.58942e-19,0.15,-0.0708333,1
7.58942e-19,0.15,-0.0697917,1
7.58942e-19,0.15,-0.0687501,1
8.13152e-19,0.15,-0.0677084,1
8.67362e-19,0.15,-0.0666667,1
1.00289e-18,0.15,-0.065625,1
1.13841e-18,0.15,-0.0645834,1
1.21973e-18,0.15,-0.0635417,1
1.30104e-18,0.15,-0.0625,1
1.32815e-18,0.15,-0.0614583,1
1.35525e-18,0.15,-0.0604166,1
1.27394e-18,0.15,-0.0593749,1
1.19262e-18,0.15,-0.0583333,1
1.11131e-18,0.15,-0.0572916,1
1.02999e-18,0.15,-0.05625,1
8.94467e-19,0.15,-0.0552083,1
7.58942e-19,0.15,-0.0541667,1
8.67362e-19,0.15,-0.053125,1
9.75782e-19,0.15,-0.0520834,1
8.94467e-19,0.15,-0.0510417,1
8.13152e-19,0.15,-0.05,1
8.13152e-19,0.15,-0.0489583,1
8.13152e-19,0.15,-0.0479167,1
7.86047e-19,0.15,-0.046875,1
7.58942e-19,0.15,-0.0458333,1
7.86047e-19,0.15,-0.0447916,1
8.13152e-19,0.15,-0.04375,1
7.18284e-19,0.15,-0.0427083,1
6.23416e-19,0.15,-0.0416667,0.999999
6.64074e-19,0.15,-0.040625,0.999999
7.04731e-19,0.15,-0.0395834,1
6.77626e-19,0.15,-0.0385417,1
6.50521e-19,0.15,-0.0375,1
6.50521e-19,0.15,-0.0364583,1
6.50521e-19,0.15,-0.0354166,1
6.91179e-19,0.15,-0.0343749,1
7.31836e-19,0.15,-0.0333333,1
6.91179e-19,0.15,-0.0322916,1
6.50521e-19,0.15,-0.03125,0.999998
7.58942e-19,0.15,-0.0302083,0.999998
8.67362e-19,0.15,-0.0291667,0.999996
7.86047e-19,0.15,-0.028125,0.999996
7.04731e-19,0.15,-0.0270833,0.999996
6.91179e-19,0.15,-0.0260416,0.999996
6.77626e-19,0.15,-0.025,0.999998
7.45389e-19,0.15,-0.0239583,0.999998
8.13152e-19,0.15,-0.0229166,1
7.86047e-19,0.15,-0.021875,1
7.58942e-19,0.15,-0.0208333,1
7.86047e-19,0.15,-0.0197916,1
8.13152e-19,0.15,-0.01875,1
7.99599e-19,0.15,-0.0177083,1
7.86047e-19,0.15,-0.0166667,1
8.26704e-19,0.15,-0.015625,1
8.67362e-19,0.15,-0.0145834,1
8.40257e-19,0.15,-0.0135417,1
0,0.15,-0.0125,1
8.13152e-19,0.15,-0.0125,1
1.89735e-19,0.15,-0.0114583,1
3.79471e-19,0.15,-0.0104167,1
4.47233e-19,0.15,-0.00937501,1
5.14996e-19,0.15,-0.00833333,0.999991
5.28549e-19,0.15,-0.00729166,0.999991
5.42101e-19,0.15,-0.00625,0.99961
5.42101e-19,0.15,-0.00520833,0.99961
5.42101e-19,0.15,-0.00416667,0.989435
5.42101e-19,0.15,-0.003125,0.989435
5.42101e-19,0.15,-0.00208333,0.818736
6.09864e-19,0.15,-0.00104166,0.818736
6.77626e-19,0.15,1.45243e-11,0.251816
6.64074e-19,0.15,0.00104167,0.251816
6.50521e-19,0.15,0.00208334,0.0150786
6.50521e-19,0.15,0.00312501,0.0150786
6.50521e-19,0.15,0.00416667,0.000239191
6.50521e-19,0.15,0.00520833,0.000239191
6.50521e-19,0.15,0.00625,1.94208e-05
6.23416e-19,0.15,0.00729166,1.94208e-05
5.96311e-19,0.15,0.00833333,8.82788e-06
6.23416e-19,0.15,0.00937501,8.82788e-06
6.50521e-19,0.15,0.0104167,2.18673e-06
6.50521e-19,0.15,0.0114583,2.18673e-06
6.50521e-19,0.15,0.0125,2.36814e-07
6.50521e-19,0.15,0.0135417,2.36814e-07
6.50521e-19,0.15,0.0145834,2.02539e-08
6.64074e-19,0.15,0.015625,2.02539e-08
6.77626e-19,0.15,0.0166667,1.66609e-09
5.82759e-19,0.15,0.0177083,1.66609e-09
4.87891e-19,0.15,0.01875,1.60581e-10
4.60786e-19,0.15,0.0197916,1.60581e-10
4.33681e-19,0.15,0.0208333,2.51008e-11
4.60786e-19,0.15,0.0218749,2.51008e-11
4.87891e-19,0.15,0.0229166,5.17707e-12
5.14996e-19,0.15,0.0239583,5.17707e-12
5.42101e-19,0.15,0.025,1.89007e-12
5.42101e-19,0.15,0.0260416,1.89007e-12
5.42101e-19,0.15,0.0270833,1.00066e-12
5.14996e-19,0.15,0.028125,1.00066e-12
4.87891e-19,0.15,0.0291667,6.6554e-13
6.23416e-19,0.15,0.0302084,6.6554e-13
7.58942e-19,0.15,0.0312501,4.88514e-13
7.18284e-19,0.15,0.0322917,4.88514e-13
6.77626e-19,0.15,0.0333333,3.60842e-13
6.91179e-19,0.15,0.034375,3.60842e-13
7.04731e-19,0.15,0.0354166,2.57691e-13
6.77626e-19,0.15,0.0364583,2.57691e-13
6.50521e-19,0.15,0.0375,1.76837e-13
4.87891e-19,0.15,0.0385417,1.76837e-13
3.25261e-19,0.15,0.0395834,1.1742e-13
2.98156e-19,0.15,0.040625,1.1742e-13
2.71051e-19,0.15,0.0416667,7.60493e-14
2.71051e-19,0.15,0.0427084,7.60493e-14
2.71051e-19,0.15,0.04375,4.82884e-14
2.43945e-19,0.15,0.0447917,4.82884e-14
2.1684e-19,0.15,0.0458333,3.01223e-14
1.35525e-19,0.15,0.046875,3.01223e-14
5.42101e-20,0.15,0.0479166,1.84672e-14
2.03288e-19,0.15,0.0489583,1.84672e-14
3.52366e-19,0.15,0.05,1.112e-14
2.03288e-19,0.15,0.0510417,1.112e-14
5.42101e-20,0.15,0.0520834,6.57475e-15
-8.13152e-20,0.15,0.0531251,6.57475e-15
-2.1684e-19,0.15,0.0541667,3.82232e-15
-5.42101e-20,0.15,0.0552084,3.82232e-15
1.0842e-19,0.15,0.0562501,2.18252e-15
1.35525e-20,0.15,0.0572917,2.18252e-15
-8.13152e-20,0.15,0.0583334,1.23091e-15
-1.76183e-19,0.15,0.0593751,1.23091e-15
-2.71051e-19,0.15,0.0604168,6.91455e-16
-2.1684e-19,0.15,0.0614585,6.91455e-16
-1.6263e-19,0.15,0.0625001,3.88362e-16
-2.71051e-19,0.15,0.0635418,3.88362e-16
-3.79471e-19,0.15,0.0645835,2.20423e-16
-2.71051e-19,0.15,0.0656252,2.20423e-16
-1.6263e-19,0.15,0.0666668,1.29247e-16
-1.89735e-19,0.15,0.0677086,1.29247e-16
-2.1684e-19,0.15,0.0687503,8.08789e-17
-1.35525e-19,0.15,0.069792,8.08789e-17
-5.42101e-20,0.15,0.0708336,5.58502e-17
8.13152e-20,0.15,0.0718754,5.58502e-17
2.1684e-19,0.15,0.0729171,4.34936e-17
1.35525e-19,0.15,0.0739588,4.34936e-17
5.42101e-20,0.15,0.0750004,3.74655e-17
2.71051e-20,0.15,0.0760422,3.74655e-17
2.71051e-20,0.15,0.077084,3.45746e-17
0,0.15,0.077084,3.74655e-17
-2.03288e-19,0.15,0.0781256,3.45746e-17
-4.33681e-19,0.15,0.0791673,3.36237e-17
-3.25261e-19,0.15,0.0812508,3.36237e-17
-2.1684e-19,0.15,0.0833344,7.50348e-17
-1.35525e-20,0.15,0.0875018,7.50348e-17
1.89735e-19,0.15,0.0916692,1.22184e-16
3.11708e-19,0.15,0.0958366,1.22184e-16
4.33681e-19,0.15,0.100004,2.16356e-16
3.79471e-19,0.15,0.108341,2.16356e-16
3.25261e-19,0.15,0.116678,9.1837e-17
2.71051e-19,0.15,0.125017,9.1837e-17
2.1684e-19,0.15,0.133356,1.07442e-17
