# Field minima and maxima
# Time          	field           	min             	location(min)   	processor       	max             	location(max)   	processor       
0.31            	mag(U)          	0.00000000e+00	(-7.49507167e-02 5.00000000e-01 3.74984650e-01)	0	2.13848202e+00	(-1.48206480e-01 4.08494243e-02 5.07076451e-01)	9
