x,y,z,alpha.water
0,0.125,-0.125,1
0,0.125,-0.120834,1
0,0.125,-0.116667,1
-8.40257e-19,0.125,-0.116667,1
-6.36969e-19,0.125,-0.1125,1
-4.33681e-19,0.125,-0.108333,1
-6.50521e-19,0.125,-0.104166,1
-8.67362e-19,0.125,-0.1,1
-7.52165e-19,0.125,-0.0958334,1
-6.36969e-19,0.125,-0.0916667,1
-4.26905e-19,0.125,-0.0875,1
-2.1684e-19,0.125,-0.0833333,1
-2.89685e-19,0.125,-0.08125,1
-3.6253e-19,0.125,-0.0791667,1
-3.98105e-19,0.125,-0.0781251,1
-4.33681e-19,0.125,-0.0770835,1
-3.79471e-19,0.125,-0.0760417,1
-3.25261e-19,0.125,-0.075,1
-3.25261e-19,0.125,-0.0739584,1
-3.25261e-19,0.125,-0.0729168,1
-4.45539e-19,0.125,-0.071875,1
-5.65818e-19,0.125,-0.0708333,1
-4.45539e-19,0.125,-0.0697917,1
-3.25261e-19,0.125,-0.0687501,1
-2.1684e-19,0.125,-0.0677084,1
-1.0842e-19,0.125,-0.0666667,1.00001
0,0.125,-0.065625,1.00001
1.0842e-19,0.125,-0.0645834,1.00001
2.71051e-19,0.125,-0.0635417,1.00001
4.33681e-19,0.125,-0.0625,1.00001
7.04731e-19,0.125,-0.0614583,1.00001
9.75782e-19,0.125,-0.0604167,1.00001
8.67362e-19,0.125,-0.059375,1.00001
7.58942e-19,0.125,-0.0583333,1.00001
7.04731e-19,0.125,-0.0572916,1.00001
6.50521e-19,0.125,-0.05625,1.00001
7.42848e-19,0.125,-0.0552083,1.00001
8.35174e-19,0.125,-0.0541667,1.00001
6.88638e-19,0.125,-0.053125,1.00001
5.42101e-19,0.125,-0.0520834,1.00001
6.50521e-19,0.125,-0.0510417,1.00001
7.58942e-19,0.125,-0.05,1.00001
7.04731e-19,0.125,-0.0489583,1.00001
6.50521e-19,0.125,-0.0479167,1.00001
6.50521e-19,0.125,-0.046875,1.00001
6.50521e-19,0.125,-0.0458333,1
7.04731e-19,0.125,-0.0447916,1
7.58942e-19,0.125,-0.0437499,1
8.67362e-19,0.125,-0.0427083,1
9.75782e-19,0.125,-0.0416667,1
9.21572e-19,0.125,-0.040625,1
8.67362e-19,0.125,-0.0395834,1
9.08866e-19,0.125,-0.0385417,1
9.50371e-19,0.125,-0.0375,1
1.0715e-18,0.125,-0.0364583,1
1.19262e-18,0.125,-0.0354167,1
1.13841e-18,0.125,-0.034375,1
1.0842e-18,0.125,-0.0333333,1
1.13841e-18,0.125,-0.0322916,1
1.19262e-18,0.125,-0.03125,1
1.35525e-18,0.125,-0.0302083,1
1.51788e-18,0.125,-0.0291667,1
1.46367e-18,0.125,-0.028125,1
1.40946e-18,0.125,-0.0270834,1
1.46367e-18,0.125,-0.0260417,1
1.51788e-18,0.125,-0.025,1
1.51788e-18,0.125,-0.0239583,1
1.51788e-18,0.125,-0.0229167,1
1.50518e-18,0.125,-0.021875,1
1.49247e-18,0.125,-0.0208333,0.999999
1.28834e-18,0.125,-0.0197916,0.999999
1.0842e-18,0.125,-0.01875,1
1.0842e-18,0.125,-0.0177083,1
1.0842e-18,0.125,-0.0166667,1
1.0842e-18,0.125,-0.015625,1
1.0842e-18,0.125,-0.0145834,0.999999
9.75782e-19,0.125,-0.0135417,0.999999
8.67362e-19,0.125,-0.0125,0.999996
9.75782e-19,0.125,-0.0114583,0.999996
1.0842e-18,0.125,-0.0104167,0.999964
1.09775e-18,0.125,-0.00937501,0.999964
1.11131e-18,0.125,-0.00833333,0.999964
2.71051e-19,0.125,-0.00833333,0.999545
1.89735e-19,0.125,-0.00729167,0.999545
1.0842e-19,0.125,-0.00625,0.992776
1.13502e-19,0.125,-0.00520833,0.992776
1.18585e-19,0.125,-0.00416667,0.855687
5.92923e-20,0.125,-0.003125,0.855687
0,0.125,-0.00208333,0.344136
0,0.125,-0.00104166,0.344136
0,0.125,4.432e-11,0.0391277
1.0842e-19,0.125,0.00104167,0.0391277
2.1684e-19,0.125,0.00208334,0.00171683
1.66865e-19,0.125,0.003125,0.00171683
1.16891e-19,0.125,0.00416667,0.000186146
1.66865e-19,0.125,0.00520833,0.000186146
2.1684e-19,0.125,0.00625,3.19406e-05
2.1684e-19,0.125,0.00729167,3.19406e-05
2.1684e-19,0.125,0.00833333,3.93772e-06
2.1684e-19,0.125,0.00937501,3.93772e-06
2.1684e-19,0.125,0.0104167,4.06557e-07
1.67713e-19,0.125,0.0114583,4.06557e-07
1.18585e-19,0.125,0.0125,1.56634e-08
1.67713e-19,0.125,0.0135417,1.56634e-08
2.1684e-19,0.125,0.0145834,3.91085e-09
2.1684e-19,0.125,0.015625,3.91085e-09
2.1684e-19,0.125,0.0166667,3.27693e-09
2.1684e-19,0.125,0.0177083,3.27693e-09
2.1684e-19,0.125,0.01875,3.73342e-09
1.0842e-19,0.125,0.0197916,3.73342e-09
0,0.125,0.0208333,2.99045e-09
-5.42101e-20,0.125,0.021875,2.99045e-09
-1.0842e-19,0.125,0.0229167,1.59371e-09
-1.0842e-19,0.125,0.0239583,1.59371e-09
-1.0842e-19,0.125,0.025,1.30169e-09
1.0842e-19,0.125,0.0260417,1.30169e-09
3.25261e-19,0.125,0.0270834,2.0273e-09
2.71051e-19,0.125,0.028125,2.0273e-09
2.1684e-19,0.125,0.0291667,4.29716e-09
1.6263e-19,0.125,0.0302083,4.29716e-09
1.0842e-19,0.125,0.03125,5.10877e-09
-5.42101e-20,0.125,0.0322916,5.10877e-09
-2.1684e-19,0.125,0.0333333,5.11205e-09
-1.6263e-19,0.125,0.0343749,5.11205e-09
-1.0842e-19,0.125,0.0354166,5.10877e-09
-1.6263e-19,0.125,0.0364583,5.10877e-09
-2.1684e-19,0.125,0.0375,4.00152e-09
-2.1684e-19,0.125,0.0385417,4.00152e-09
-2.1684e-19,0.125,0.0395834,2.05989e-09
-2.1684e-19,0.125,0.040625,2.05989e-09
-2.1684e-19,0.125,0.0416667,1.49008e-09
-2.1684e-19,0.125,0.0427083,1.49008e-09
-2.1684e-19,0.125,0.04375,1.32665e-09
-2.48181e-19,0.125,0.0447917,1.32665e-09
-2.79521e-19,0.125,0.0458334,1.15458e-09
-2.48181e-19,0.125,0.0468751,1.15458e-09
-2.1684e-19,0.125,0.0479168,9.97739e-10
0,0.125,0.0489584,9.97739e-10
2.1684e-19,0.125,0.0500001,9.67327e-10
1.0842e-19,0.125,0.0510418,9.67327e-10
0,0.125,0.0520835,1.02315e-09
0,0.125,0.0531251,1.02315e-09
0,0.125,0.0541668,1.11911e-09
5.42101e-20,0.125,0.0552085,1.11911e-09
1.0842e-19,0.125,0.0562502,1.17218e-09
1.6263e-19,0.125,0.0572919,1.17218e-09
2.1684e-19,0.125,0.0583335,1.19957e-09
2.71051e-19,0.125,0.0593752,1.19957e-09
3.25261e-19,0.125,0.0604169,1.34719e-09
5.32784e-19,0.125,0.0614586,1.34719e-09
7.40307e-19,0.125,0.0625003,1.63788e-09
8.58044e-19,0.125,0.0635421,1.63788e-09
9.75782e-19,0.125,0.0645839,1.80201e-09
7.58942e-19,0.125,0.0656255,1.80201e-09
5.42101e-19,0.125,0.0666672,1.81603e-09
5.42101e-19,0.125,0.0677089,1.81603e-09
5.42101e-19,0.125,0.0687507,1.72364e-09
6.50521e-19,0.125,0.0697924,1.72364e-09
7.58942e-19,0.125,0.0708341,1.65992e-09
9.75782e-19,0.125,0.071876,1.65992e-09
-8.80914e-20,0.125,0.0729179,1.63934e-09
1.19262e-18,0.125,0.0729179,1.65992e-09
-3.15096e-19,0.125,0.0739596,1.63934e-09
-5.42101e-19,0.125,0.0750012,1.63573e-09
-3.25261e-19,0.125,0.0760432,1.63573e-09
-1.0842e-19,0.125,0.0770852,1.6867e-09
7.6233e-20,0.125,0.0781269,1.6867e-09
2.60886e-19,0.125,0.0791686,1.82542e-09
1.84653e-19,0.125,0.0812524,1.82542e-09
1.0842e-19,0.125,0.0833362,2.14565e-09
-1.6263e-19,0.125,0.0875052,2.14565e-09
-4.33681e-19,0.125,0.0916743,2.95073e-09
-5.42101e-19,0.125,0.0958428,2.95073e-09
-6.50521e-19,0.125,0.100011,3.82367e-09
-3.25261e-19,0.125,0.108362,3.82367e-09
0,0.125,0.116713,4.12041e-09
0,0.125,0.125066,4.12041e-09
0,0.125,0.133419,3.8999e-09
