# Probe 0 (0 0 -0.1)  # Not Found
# Probe 1 (0 0.1 -0.1)
# Probe 2 (0 0.2 -0.1)
# Probe 3 (0.1 0.1 -0.1)
# Probe 4 (0 0 -0.1)  # Not Found
# Probe 5 (0.1 0 -0.1)
# Probe 6 (0.2 0 -0.1)
# Probe 7 (0 0.385 -0.1)
# Time        0             1             2             3             4             5             6             7            
0.00979236    -1e+300       1079.9        1131.46       1093.79       -1e+300       1038.78       1030.95       0.73861      
0.0203216     -1e+300       1084.32       1125.17       1091.25       -1e+300       1042.41       1023.86       0.74182      
0.0283326     -1e+300       1088.08       1121.28       1089.25       -1e+300       1044.79       1017.5        0.743885     
0.0378896     -1e+300       1091.5        1115.11       1084.56       -1e+300       1045.57       1006.3        0.747553     
0.0522251     -1e+300       1098.09       1109.28       1082.54       -1e+300       1050.36       998.277       0.750388     
0.0617821     -1e+300       1101.11       1102.61       1080          -1e+300       1053.48       993.335       0.754282     
0.0713391     -1e+300       1105.33       1099.12       1078.84       -1e+300       1056.47       988.641       0.755949     
0.080896      -1e+300       1108.64       1094.11       1077.01       -1e+300       1059.38       984.271       0.758728     
0.090453      -1e+300       1111.79       1089.12       1075.24       -1e+300       1062.18       980.229       0.761438     
0.10001       -1e+300       1115.53       1086.26       1074.31       -1e+300       1064.83       976.462       0.762707     
0.10976       -1e+300       1116.01       1078          1069.34       -1e+300       1064.99       969.224       0.767506     
0.11926       -1e+300       1121.35       1078.52       1071.54       -1e+300       1069.52       969.459       0.766412     
0.12876       -1e+300       1121.84       1070.29       1068.31       -1e+300       1071.6        966.472       0.771261     
0.13826       -1e+300       1125.78       1070.87       1068.75       -1e+300       1073.39       963.688       0.769897     
0.14776       -1e+300       1125.29       1062.12       1065.28       -1e+300       1075.1        961.38        0.775011     
0.16201       -1e+300       1127.38       1056.99       1063.52       -1e+300       1077.25       958.571       0.776987     
0.17151       -1e+300       1130.07       1057.71       1064.07       -1e+300       1078.45       957.213       0.775415     
0.18101       -1e+300       1128.2        1048.8        1060.75       -1e+300       1079.65       956.524       0.780484     
0.19051       -1e+300       1131.18       1051.84       1062.44       -1e+300       1080.59       956.245       0.777267     
0.20001       -1e+300       1128.19       1042.14       1059.02       -1e+300       1081.67       956.835       0.782922     
0.210288      -1e+300       1133.3        1048.04       1063.95       -1e+300       1085.33       960.888       0.777967     
0.221195      -1e+300       1130.81       1040.34       1062.02       -1e+300       1086.96       963.573       0.782308     
0.232052      -1e+300       1125.4        1036.37       1057.56       -1e+300       1081.17       959.845       0.783213     
0.242507      -1e+300       1126.61       1035.13       1060.91       -1e+300       1086.29       968.127       0.783721     
0.252091      -1e+300       1125.8        1034.62       1062.66       -1e+300       1087.61       973.293       0.783368     
0.261675      -1e+300       1126.2        1036.65       1065.65       -1e+300       1089.53       979.568       0.781971     
0.271259      -1e+300       1123.15       1032.05       1066.27       -1e+300       1091.42       986.687       0.785092     
0.280842      -1e+300       1125.59       1040.35       1072.47       -1e+300       1093.45       994.653       0.779414     
0.290426      -1e+300       1120.27       1031.67       1072.11       -1e+300       1096.01       1003.97       0.785915     
0.30001       -1e+300       1124.86       1045.6        1081.42       -1e+300       1098.57       1014.02       0.7767       
0.308706      -1e+300       1117.93       1034.36       1080.37       -1e+300       1101.52       1024.69       0.785417     
0.321749      -1e+300       1118.39       1042.18       1089.39       -1e+300       1105.91       1041.35       0.7815       
0.330203      -1e+300       1118.91       1051.99       1096.67       -1e+300       1106.96       1052.25       0.775353     
0.34161       -1e+300       1113.48       1047.68       1100.94       -1e+300       1111.83       1070.09       0.780459     
0.34891       -1e+300       1118.22       1059.54       1110.86       -1e+300       1116.87       1082.29       0.773859     
0.359338      -1e+300       1121          1073.92       1122.91       -1e+300       1121.41       1099.62       0.765806     
0.368941      -1e+300       1118.41       1076.25       1129.71       -1e+300       1126.01       1116.6        0.766378     
0.381369      -1e+300       1118.91       1089.22       1142.81       -1e+300       1131.73       1138.87       0.760288     
0.390689      -1e+300       1111.89       1083.41       1146.09       -1e+300       1136.04       1156.1        0.766738     
0.40001       -1e+300       1103.97       1076.2        1148.91       -1e+300       1140.33       1173.63       0.774215     
0.410381      -1e+300       1103.33       1086.29       1159.39       -1e+300       1144.82       1191.66       0.769632     
0.421585      -1e+300       1105.72       1109.31       1176          -1e+300       1148.29       1212.79       0.755406     
0.428876      -1e+300       1098.96       1106.73       1179.41       -1e+300       1150.75       1227.96       0.758716     
0.439546      -1e+300       1088.82       1098.83       1181.8        -1e+300       1154.28       1245.87       0.766468     
0.450216      -1e+300       1085.17       1109.46       1191.82       -1e+300       1156.54       1264.14       0.760497     
0.460886      -1e+300       1087.95       1136.84       1208.59       -1e+300       1157.77       1281.25       0.742063     
0.471556      -1e+300       1086.36       1155.51       1220.98       -1e+300       1158.2        1297.35       0.729348     
0.47867       -1e+300       1062.86       1115.54       1206.39       -1e+300       1158.51       1308.14       0.758343     
0.48934       -1e+300       1057.37       1127.19       1214.58       -1e+300       1157.28       1322.17       0.750013     
0.50001       -1e+300       1059.02       1157.61       1230.18       -1e+300       1154.76       1334.71       0.727557     
0.510355      -1e+300       1055.41       1175.21       1239.51       -1e+300       1151.69       1344.37       0.713988     
0.5207        -1e+300       1038.22       1160.17       1233.99       -1e+300       1147.99       1352.8        0.723494     
0.531044      -1e+300       1015.5        1131.54       1221.97       -1e+300       1143.63       1360.75       0.74271      
0.541389      -1e+300       1002.65       1127          1219.64       -1e+300       1138.3        1366.9        0.744205     
0.548286      -1e+300       1019.44       1188.24       1245.64       -1e+300       1133.73       1369.4        0.698584     
0.558631      -1e+300       999.905       1165.68       1234.67       -1e+300       1127.97       1373.75       0.712747     
0.569665      -1e+300       975.266       1130.39       1217.61       -1e+300       1121.54       1377.03       0.736198     
0.581044      -1e+300       963.557       1127.1        1214.1        -1e+300       1114.82       1379.32       0.736941     
