# Probe 0 (0 0 -0.1)  # Not Found
# Probe 1 (0 0.1 -0.1)
# Probe 2 (0 0.2 -0.1)
# Probe 3 (0.1 0.1 -0.1)
# Probe 4 (0 0 -0.1)  # Not Found
# Probe 5 (0.1 0 -0.1)
# Probe 6 (0.2 0 -0.1)
# Probe 7 (0 0.385 -0.1)
# Time        0             1             2             3             4             5             6             7            
0.00979236    -1e+300       132.24        132.039       90.3685       -1e+300       91.1313       31.5323       0.00206534   
0.0203216     -1e+300       139.366       138.663       96.4606       -1e+300       97.4678       37.3505       0.00527571   
0.0283326     -1e+300       145.167       144.524       100.972       -1e+300       101.885       40.7416       0.00734029   
0.0378896     -1e+300       151.003       149.87        103.983       -1e+300       105.085       41.0655       0.0110082    
0.0522251     -1e+300       161.142       160.994       113.285       -1e+300       113.425       49.988        0.0138431    
0.0617821     -1e+300       166.465       165.346       118.111       -1e+300       118.857       56.0694       0.0177379    
0.0713391     -1e+300       172.935       172.621       124.138       -1e+300       124.095       62.1311       0.0194045    
0.080896      -1e+300       178.439       178.062       129.287       -1e+300       129.201       68.2109       0.0221833    
0.090453      -1e+300       183.706       183.177       134.266       -1e+300       134.117       74.2744       0.0248937    
0.10001       -1e+300       189.48        190.043       139.838       -1e+300       138.805       80.2328       0.0261624    
0.10976       -1e+300       191.949       191.282       141.213       -1e+300       140.96        82.4893       0.0309619    
0.11926       -1e+300       199.135       200.604       149.292       -1e+300       147.331       91.5247       0.029868     
0.12876       -1e+300       201.367       200.701       151.623       -1e+300       151.16        96.8631       0.0347168    
0.13826       -1e+300       206.939       209.104       157.284       -1e+300       154.589       101.9         0.033353     
0.14776       -1e+300       207.98        207.641       158.689       -1e+300       157.822       106.88        0.0384663    
0.16201       -1e+300       212.138       212.396       163.519       -1e+300       162.045       113.946       0.0404423    
0.17151       -1e+300       216.05        218.969       167.975       -1e+300       164.47        118.435       0.0388705    
0.18101       -1e+300       215.282       215.294       168.153       -1e+300       166.768       122.978       0.0439395    
0.19051       -1e+300       219.218       222.931       172.911       -1e+300       168.67        127.297       0.0407224    
0.20001       -1e+300       217.055       217.192       172.13        -1e+300       170.582       131.836       0.0463772    
0.210288      -1e+300       222.91        226.619       179.416       -1e+300       174.973       139.413       0.0414226    
0.221195      -1e+300       221.016       221.799       179.408       -1e+300       177.211       144.972       0.0457641    
0.232052      -1e+300       216.026       219.788       176.257       -1e+300       171.83        143.206       0.0466684    
0.242507      -1e+300       217.45        219.587       180.29        -1e+300       177.167       152.521       0.0471767    
0.252091      -1e+300       216.68        219.288       182.184       -1e+300       178.538       157.893       0.0468237    
0.261675      -1e+300       216.978       220.817       184.835       -1e+300       180.345       163.663       0.0454263    
0.271259      -1e+300       213.681       215.017       184.647       -1e+300       181.987       169.569       0.048548     
0.280842      -1e+300       215.717       221.399       189.562       -1e+300       183.618       175.617       0.0428693    
0.290426      -1e+300       209.855       210.112       187.46        -1e+300       185.624       182.318       0.0493705    
0.30001       -1e+300       213.754       220.749       194.568       -1e+300       187.494       189.068       0.0401557    
0.308706      -1e+300       206.074       205.927       191.118       -1e+300       189.7         196.158       0.0488725    
0.321749      -1e+300       205.202       207.364       195.878       -1e+300       192.749       206.431       0.0449561    
0.330203      -1e+300       204.72        212.401       199.962       -1e+300       192.797       212.551       0.038809     
0.34161       -1e+300       197.782       200.886       199.421       -1e+300       196.155       223.176       0.0439147    
0.34891       -1e+300       201.457       207.691       205.961       -1e+300       200.136       230.313       0.0373144    
0.359338      -1e+300       202.608       214.262       212.8         -1e+300       203.04        239.84        0.0292618    
0.368941      -1e+300       198.398       208.834       214.407       -1e+300       206.012       249.046       0.0298341    
0.381369      -1e+300       196.626       210.983       220.286       -1e+300       209.465       260.5         0.0237434    
0.390689      -1e+300       187.795       196.528       217.787       -1e+300       211.962       269.077       0.0301935    
0.40001       -1e+300       177.979       180.241       214.545       -1e+300       214.353       277.522       0.0376708    
0.410381      -1e+300       175.123       179.771       217.965       -1e+300       216.625       284.981       0.0330872    
0.421585      -1e+300       175.02        190.874       226.621       -1e+300       217.603       294.199       0.0188611    
0.428876      -1e+300       166.593       180.293       224.684       -1e+300       218.379       301.369       0.0221718    
0.439546      -1e+300       153.935       160.365       219.047       -1e+300       219.392       307.252       0.0299239    
0.450216      -1e+300       147.694       158.646       220.809       -1e+300       219.059       313.164       0.0239529    
0.460886      -1e+300       147.835       173.402       229.146       -1e+300       217.642       317.641       0.00551817   
0.471556      -1e+300       143.55        179.233       232.967       -1e+300       215.379       320.897       -0.00719665  
0.47867       -1e+300       118.242       130.613       212.594       -1e+300       213.876       323.032       0.0217986    
0.48934       -1e+300       110.013       129.182       212.06        -1e+300       209.913       323.986       0.0134683    
0.50001       -1e+300       108.915       146.473       218.883       -1e+300       204.633       323.398       -0.00898735  
0.510355      -1e+300       102.642       151.342       219.709       -1e+300       198.897       320.324       -0.0225565   
0.5207        -1e+300       82.8014       123.623       205.724       -1e+300       192.544       316.067       -0.0130507   
0.531044      -1e+300       57.4468       82.4158       185.302       -1e+300       185.547       311.441       0.00616549   
0.541389      -1e+300       41.9955       65.4593       174.682       -1e+300       177.612       305.179       0.00766091   
0.548286      -1e+300       57.0711       118.534       195.226       -1e+300       171.33        299.519       -0.0379603   
0.558631      -1e+300       35.0207       83.9429       176.221       -1e+300       163.05        291.827       -0.0237977   
0.569665      -1e+300       7.76242       36.1444       150.805       -1e+300       153.994       282.602       -0.0003465   
0.581044      -1e+300       -6.56001      20.3683       138.967       -1e+300       144.666       272.413       0.000396683  
