# Probe 0 (0 0 -0.1)  # Not Found
# Probe 1 (0 0.1 -0.1)
# Probe 2 (0 0.2 -0.1)
# Probe 3 (0.1 0.1 -0.1)
# Probe 4 (0 0 -0.1)  # Not Found
# Probe 5 (0.1 0 -0.1)
# Probe 6 (0.2 0 -0.1)
# Probe 7 (0 0.385 -0.1)
# Time        0             1             2             3             4             5             6             7            
0.01          -1e+300       962.906       951.357       976.099       -1e+300       923.148       853.696       0.740801     
0.02          -1e+300       962.581       941.426       969.746       -1e+300       922.441       844.022       0.744284     
0.03          -1e+300       964.998       932.3         965.973       -1e+300       925.829       838.306       0.750203     
0.04          -1e+300       972.43        934.669       967.293       -1e+300       929.343       832.751       0.74756      
0.05          -1e+300       985.582       950.368       974.453       -1e+300       932.703       827.236       0.734485     
0.06          -1e+300       989.972       945.653       972.836       -1e+300       936.244       822.345       0.737432     
0.07          -1e+300       966.48        877.217       943.514       -1e+300       940.491       818.443       0.790516     
0.08          -1e+300       940.17        803.925       911.87        -1e+300       944.665       815.123       0.847596     
0.09          -1e+300       999.809       927.581       965.548       -1e+300       946.155       808.807       0.75043      
0.1           -1e+300       1163.23       1284.29       1120.45       -1e+300       944.341       799.146       0.470337     
0.11          -1e+300       1165.03       1273.35       1116.31       -1e+300       946.87        795.087       0.476386     
0.12          -1e+300       654.291       116.809       616.847       -1e+300       965.23        809.426       1.38056      
0.13          -1e+300       86.4287       -1146.54      68.7978       -1e+300       982.082       822.668       2.36906      
0.14          -1e+300       1111.47       1127.93       1049.82       -1e+300       956.674       787.8         0.600803     
0.15          -1e+300       4085.89       7671.16       3873.4        -1e+300       874.138       688.718       -4.50715     
0.16          -1e+300       7087.16       14127         6682.27       -1e+300       872.553       647.288       -9.40498     
0.17          -1e+300       9098.35       17426.8       8487.58       -1e+300       1661.49       1230.78       -10.8014     
