# Probe 0 (0 0 -0.1)  # Not Found
# Probe 1 (0 0.1 -0.1)
# Probe 2 (0 0.2 -0.1)
# Probe 3 (0.1 0.1 -0.1)
# Probe 4 (0 0 -0.1)  # Not Found
# Probe 5 (0.1 0 -0.1)
# Probe 6 (0.2 0 -0.1)
# Probe 7 (0 0.385 -0.1)
# Time        0             1             2             3             4             5             6             7            
0.01          -1e+300       15.3037       13.4966       -27.1474      -1e+300       -24.4525      -84.1645      0.00425631   
0.02          -1e+300       17.5464       15.8286       -25.308       -1e+300       -22.5889      -81.5764      0.0077396    
0.03          -1e+300       22.5104       18.8673       -20.9523      -1e+300       -16.652       -75.127       0.0136585    
0.04          -1e+300       32.4582       33.2568       -11.6015      -1e+300       -10.6189      -68.663       0.0110154    
0.05          -1e+300       48.0871       60.7838       3.46075       -1e+300       -4.77979      -62.3512      -0.00205939  
0.06          -1e+300       54.9032       67.6578       9.58579       -1e+300       1.19039       -55.6542      0.000887751  
0.07          -1e+300       33.7778       10.5263       -12.1839      -1e+300       7.80587       -48.2525      0.0539719    
0.08          -1e+300       9.7656        -51.7896      -36.4959      -1e+300       14.2799       -40.5988      0.111051     
0.09          -1e+300       71.6237       82.4692       24.265        -1e+300       17.9927       -36.313       0.0138858    
0.1           -1e+300       237.178       449.363       185.974       -1e+300       18.3137       -35.7872      -0.266208    
0.11          -1e+300       241.02        448.164       188.338       -1e+300       22.882        -30.1138      -0.260158    
0.12          -1e+300       -267.788      -699.137      -304.956      -1e+300       43.1787       -6.53633      0.644017     
0.13          -1e+300       -833.826      -1953.77      -847.187      -1e+300       61.8568       15.4155       1.63251      
0.14          -1e+300       192.918       328.849       139.279       -1e+300       38.1561       -11.306       -0.135742    
0.15          -1e+300       3168.92       6879.63       2967.9        -1e+300       -42.7973      -102.837      -5.24369     
0.16          -1e+300       6171.65       13342.4       5781.4        -1e+300       -42.9301      -137.343      -10.1415     
0.17          -1e+300       8184.15       16648.4       7590.91       -1e+300       747.322       452.426       -11.5379     
