# Moment      
# CofR        : (0.000000e+00 0.000000e+00 0.000000e+00)
#
# Time        	total_x total_y total_z	pressure_x pressure_y pressure_z	viscous_x viscous_y viscous_z
0.1705         -5.332650e-01 2.041025e-01 2.717244e-08 -5.330411e-01 2.040301e-01 3.423421e-08 -2.238761e-04 7.243757e-05 -7.061771e-09
0.171059       5.716012e+00 -1.588903e-02 9.217974e-09 5.716112e+00 -1.596117e-02 1.830760e-08 -9.952436e-05 7.213763e-05 -9.089624e-09
0.171747       -9.581083e-01 3.307465e-02 -5.197318e-09 -9.579834e-01 3.300183e-02 5.128746e-09 -1.249225e-04 7.282622e-05 -1.032606e-08
0.172572       -5.991222e+00 7.652260e-02 -7.917766e-09 -5.990903e+00 7.644724e-02 1.691444e-09 -3.186216e-04 7.535892e-05 -9.609211e-09
0.173036       -1.161585e+00 2.782227e-02 2.345852e-08 -1.161245e+00 2.774614e-02 3.316446e-08 -3.400053e-04 7.613357e-05 -9.705941e-09
0.1735         8.985870e+00 -6.661175e-02 9.940913e-09 8.986048e+00 -6.668688e-02 2.259988e-08 -1.777943e-04 7.513295e-05 -1.265897e-08
0.174042       -1.222494e+00 4.472637e-02 5.985385e-10 -1.222290e+00 4.465038e-02 1.465569e-08 -2.034438e-04 7.598574e-05 -1.405715e-08
0.174638       -9.827400e+00 1.560038e-01 -4.866090e-09 -9.826967e+00 1.559242e-01 7.932791e-09 -4.325054e-04 7.959383e-05 -1.279888e-08
0.174995       -1.554028e+00 4.667841e-02 1.877330e-08 -1.553574e+00 4.659789e-02 3.235618e-08 -4.546630e-04 8.051888e-05 -1.358288e-08
0.175353       1.426262e+01 -1.725096e-01 5.949529e-09 1.426287e+01 -1.725880e-01 2.325717e-08 -2.565601e-04 7.839153e-05 -1.730764e-08
0.175775       -2.220944e+00 7.326536e-02 2.709499e-08 -2.220651e+00 7.318590e-02 4.523494e-08 -2.928123e-04 7.946435e-05 -1.813995e-08
0.176245       -1.555021e+01 3.060211e-01 -1.235698e-08 -1.554963e+01 3.059361e-01 2.758751e-09 -5.781299e-04 8.493519e-05 -1.511574e-08
0.176513       -2.734499e+00 8.608494e-02 1.520701e-08 -2.733892e+00 8.599890e-02 3.016330e-08 -6.072517e-04 8.604665e-05 -1.495628e-08
0.176781       2.287623e+01 -3.881954e-01 4.503725e-09 2.287660e+01 -3.882778e-01 2.374507e-08 -3.689512e-04 8.239790e-05 -1.924135e-08
0.177103       -3.585577e+00 1.252861e-01 4.197293e-08 -3.585164e+00 1.252023e-01 6.132700e-08 -4.133681e-04 8.378233e-05 -1.935407e-08
0.177465       -2.469823e+01 5.870269e-01 -2.112061e-08 -2.469747e+01 5.869351e-01 -6.660459e-09 -7.625972e-04 9.178817e-05 -1.446015e-08
0.177676       -4.141130e+00 1.471676e-01 1.206976e-08 -4.140333e+00 1.470745e-01 2.642363e-08 -7.973176e-04 9.318372e-05 -1.435387e-08
0.177888       3.616485e+01 -7.882678e-01 1.178601e-08 3.616535e+01 -7.883551e-01 3.171976e-08 -5.008775e-04 8.731325e-05 -1.993375e-08
0.178152       -6.489774e+00 2.310087e-01 4.127472e-08 -6.489207e+00 2.309192e-01 6.070061e-08 -5.668064e-04 8.945737e-05 -1.942589e-08
0.17846        -3.806824e+01 1.080144e+00 -3.097583e-08 -3.806722e+01 1.080042e+00 -1.962481e-08 -1.024819e-03 1.019427e-04 -1.135102e-08
0.178631       -7.627225e+00 2.955038e-01 3.826742e-08 -7.626148e+00 2.953997e-01 4.892326e-08 -1.076619e-03 1.041095e-04 -1.065584e-08
0.178783       6.047467e+01 -1.626197e+00 5.534067e-08 6.047539e+01 -1.626293e+00 7.245642e-08 -7.199344e-04 9.534452e-05 -1.711575e-08
0.178957       -9.650680e+00 3.909178e-01 3.973318e-08 -9.649896e+00 3.908201e-01 5.638403e-08 -7.840252e-04 9.776431e-05 -1.665085e-08
0.179165       -6.325096e+01 2.063527e+00 -2.494163e-08 -6.324966e+01 2.063413e+00 -1.749602e-08 -1.297874e-03 1.136932e-04 -7.445611e-09
0.179305       -5.202870e+00 2.992010e-01 4.637413e-08 -5.201542e+00 2.990854e-01 5.328840e-08 -1.327229e-03 1.155646e-04 -6.914272e-09
0.179444       8.901847e+01 -2.797583e+00 6.876989e-08 8.901932e+01 -2.797685e+00 8.395085e-08 -8.477489e-04 1.017085e-04 -1.518095e-08
0.179629       -2.293584e+01 9.164556e-01 6.174286e-08 -2.293483e+01 9.163478e-01 7.379314e-08 -1.011304e-03 1.078319e-04 -1.205028e-08
0.179815       -1.003016e+02 3.747357e+00 -5.078061e-08 -1.002999e+02 3.747224e+00 -5.240259e-08 -1.736051e-03 1.335589e-04 1.621978e-09
0.179907       -1.161764e+01 6.169203e-01 1.843484e-07 -1.161586e+01 6.167842e-01 1.820457e-07 -1.778818e-03 1.360609e-04 2.302665e-09
0.18           1.475019e+02 -5.349425e+00 1.499606e-07 1.475032e+02 -5.349543e+00 1.564818e-07 -1.249847e-03 1.183657e-04 -6.521194e-09
0.180109       -2.994229e+01 1.356444e+00 9.125798e-08 -2.994091e+01 1.356320e+00 9.586837e-08 -1.374124e-03 1.237249e-04 -4.610394e-09
0.180231       -1.595219e+02 6.600969e+00 -3.748552e-08 -1.595198e+02 6.600815e+00 -4.583961e-08 -2.130507e-03 1.533450e-04 8.354097e-09
0.180314       2.737660e+00 1.834316e-01 2.164120e-07 2.739783e+00 1.832772e-01 2.078096e-07 -2.123462e-03 1.543706e-04 8.602368e-09
0.180401       2.125177e+02 -8.575983e+00 1.799756e-07 2.125191e+02 -8.576111e+00 1.820335e-07 -1.413647e-03 1.278171e-04 -2.057948e-09
0.180503       -5.868542e+01 2.772942e+00 1.415351e-07 -5.868377e+01 2.772804e+00 1.393806e-07 -1.642677e-03 1.379834e-04 2.154550e-09
0.180617       -2.315471e+02 1.052639e+01 -1.057364e-07 -2.315444e+02 1.052621e+01 -1.253473e-07 -2.671551e-03 1.823220e-04 1.961094e-08
0.180685       6.535606e+00 9.860459e-02 3.804814e-07 6.538262e+00 9.842139e-02 3.607387e-07 -2.656726e-03 1.832023e-04 1.974274e-08
0.180756       3.138670e+02 -1.399673e+01 3.041349e-07 3.138688e+02 -1.399688e+01 2.961402e-07 -1.796178e-03 1.475511e-04 7.994672e-09
0.18084        -9.120285e+01 4.637257e+00 1.862361e-07 -9.120076e+01 4.637096e+00 1.731069e-07 -2.086172e-03 1.614819e-04 1.312917e-08
0.180932       -3.425439e+02 1.690657e+01 -1.443380e-07 -3.425406e+02 1.690635e+01 -1.768119e-07 -3.315313e-03 2.190387e-04 3.247387e-08
0.180988       2.091358e+01 -4.948824e-01 5.270555e-07 2.091685e+01 -4.951012e-01 4.948038e-07 -3.273169e-03 2.188455e-04 3.225165e-08
0.181047       4.567771e+02 -2.216831e+01 4.854317e-07 4.567793e+02 -2.216848e+01 4.661991e-07 -2.237508e-03 1.720158e-04 1.923257e-08
0.181116       -1.436751e+02 7.785701e+00 2.587327e-07 -1.436724e+02 7.785509e+00 2.333314e-07 -2.614986e-03 1.913711e-04 2.540137e-08
0.181193       -4.985941e+02 2.642569e+01 -2.026263e-07 -4.985900e+02 2.642542e+01 -2.497702e-07 -4.093915e-03 2.658890e-04 4.714393e-08
0.181239       4.924902e+01 -1.903867e+00 8.130610e-07 4.925303e+01 -1.904131e+00 7.661134e-07 -4.009385e-03 2.637339e-04 4.694760e-08
0.181289       6.539697e+02 -3.414719e+01 7.357580e-07 6.539725e+02 -3.414739e+01 7.036744e-07 -2.765715e-03 2.030681e-04 3.208356e-08
0.181346       -2.245391e+02 1.287510e+01 4.793940e-07 -2.245358e+02 1.287487e+01 4.393594e-07 -3.259488e-03 2.298917e-04 4.003454e-08
0.18141        -7.146698e+02 4.029645e+01 -2.679798e-07 -7.146648e+02 4.029612e+01 -3.320925e-07 -5.031399e-03 3.251351e-04 6.411275e-08
0.181449       9.830279e+01 -4.635064e+00 1.294430e-06 9.830768e+01 -4.635384e+00 1.231662e-06 -4.889343e-03 3.200118e-04 6.276763e-08
0.181491       9.195831e+02 -5.113939e+01 1.026172e-06 9.195865e+02 -5.113963e+01 9.806061e-07 -3.411432e-03 2.430464e-04 4.556563e-08
0.18154        -3.452028e+02 2.081303e+01 7.120960e-07 -3.451988e+02 2.081275e+01 6.569126e-07 -4.054388e-03 2.798641e-04 5.518342e-08
0.181593       -1.025707e+03 6.092295e+01 -2.346359e-07 -1.025701e+03 6.092255e+01 -3.146067e-07 -6.135371e-03 3.979882e-04 7.997078e-08
0.181626       2.162521e+02 -1.174088e+01 1.915492e-06 2.162579e+02 -1.174126e+01 1.840160e-06 -5.868867e-03 3.858409e-04 7.533213e-08
0.181661       1.270917e+03 -7.453614e+01 1.322269e-06 1.270921e+03 -7.453643e+01 1.266167e-06 -4.120930e-03 2.896068e-04 5.610191e-08
0.181703       -5.541601e+02 3.477709e+01 1.089564e-06 -5.541551e+02 3.477674e+01 1.021918e-06 -5.004802e-03 3.423974e-04 6.764527e-08
0.181747       -1.448381e+03 8.998154e+01 -1.834244e-07 -1.448374e+03 8.998105e+01 -2.765066e-07 -7.442915e-03 4.874530e-04 9.308216e-08
0.181775       4.578027e+02 -2.709247e+01 2.638881e-06 4.578096e+02 -2.709293e+01 2.554780e-06 -6.961434e-03 4.623540e-04 8.410117e-08
0.181806       1.714056e+03 -1.051616e+02 1.537246e-06 1.714061e+03 -1.051620e+02 1.474491e-06 -4.929793e-03 3.450572e-04 6.275576e-08
