x,y,z,alpha.water
0,0.15,-0.125,1
2.1684e-19,0.15,-0.120833,1
1.0842e-19,0.15,-0.116667,1
4.33681e-19,0.15,-0.116667,1
5.96311e-19,0.15,-0.1125,1
1.0842e-18,0.15,-0.108333,1
1.78893e-18,0.15,-0.104167,1
2.49366e-18,0.15,-0.1,1
2.33103e-18,0.15,-0.0958334,1
2.1684e-18,0.15,-0.0916667,1
2.22939e-18,0.15,-0.0875,1
2.29038e-18,0.15,-0.0833333,1
2.50044e-18,0.15,-0.08125,1
2.71051e-18,0.15,-0.0791667,1
2.76472e-18,0.15,-0.078125,1
2.81893e-18,0.15,-0.0770834,1
2.83925e-18,0.15,-0.0760417,1
2.85958e-18,0.15,-0.075,1
2.89346e-18,0.15,-0.0739584,1
2.92735e-18,0.15,-0.0729167,1
2.98156e-18,0.15,-0.071875,1
3.03577e-18,0.15,-0.0708333,1
3.14419e-18,0.15,-0.0697917,1
3.25261e-18,0.15,-0.06875,1
3.15774e-18,0.15,-0.0677084,1
3.06287e-18,0.15,-0.0666667,1
3.15774e-18,0.15,-0.065625,1
3.25261e-18,0.15,-0.0645834,1
2.92735e-18,0.15,-0.0635417,1
2.60209e-18,0.15,-0.0625,1
2.71051e-18,0.15,-0.0614583,1
2.81893e-18,0.15,-0.0604166,1
2.80537e-18,0.15,-0.059375,1
2.79182e-18,0.15,-0.0583333,1
2.968e-18,0.15,-0.0572917,1
3.14419e-18,0.15,-0.05625,1
3.30682e-18,0.15,-0.0552084,1
3.46945e-18,0.15,-0.0541667,1
3.41524e-18,0.15,-0.0531251,1
3.36103e-18,0.15,-0.0520834,1
3.39491e-18,0.15,-0.0510417,1
3.42879e-18,0.15,-0.05,1
3.66596e-18,0.15,-0.0489583,1
3.90313e-18,0.15,-0.0479167,1
3.7405e-18,0.15,-0.046875,1
3.57787e-18,0.15,-0.0458333,1
3.41524e-18,0.15,-0.0447917,1
3.25261e-18,0.15,-0.04375,1
3.29326e-18,0.15,-0.0427084,1
3.33392e-18,0.15,-0.0416667,1
3.23905e-18,0.15,-0.040625,1
3.14419e-18,0.15,-0.0395834,1
2.87314e-18,0.15,-0.0385417,1
2.60209e-18,0.15,-0.0375,1
2.71051e-18,0.15,-0.0364583,1
2.81893e-18,0.15,-0.0354166,1
2.80537e-18,0.15,-0.034375,1
2.79182e-18,0.15,-0.0333333,1
2.80537e-18,0.15,-0.0322917,1
2.81893e-18,0.15,-0.0312501,0.999999
2.6563e-18,0.15,-0.0302084,0.999999
2.49366e-18,0.15,-0.0291667,0.999999
2.33103e-18,0.15,-0.028125,0.999999
2.1684e-18,0.15,-0.0270833,0.999999
2.08709e-18,0.15,-0.0260417,0.999999
2.00577e-18,0.15,-0.025,1
2.03288e-18,0.15,-0.0239583,1
2.05998e-18,0.15,-0.0229166,0.999999
2.11419e-18,0.15,-0.021875,0.999999
2.1684e-18,0.15,-0.0208333,0.999999
-2.1684e-19,0.15,-0.0208333,1
-6.50521e-19,0.15,-0.0197917,1
-1.0842e-18,0.15,-0.01875,1
-1.09098e-18,0.15,-0.0177084,1
-1.09775e-18,0.15,-0.0166667,1
-9.82558e-19,0.15,-0.015625,1
-8.67362e-19,0.15,-0.0145833,1
-7.72494e-19,0.15,-0.0135417,1
-6.77626e-19,0.15,-0.0125,1
-3.25261e-19,0.15,-0.0125,1
-5.42101e-19,0.15,-0.0114584,1
-7.58942e-19,0.15,-0.0104167,0.999999
-7.86047e-19,0.15,-0.00937502,0.999999
-8.13152e-19,0.15,-0.00833333,0.99998
-9.48677e-19,0.15,-0.00729167,0.99998
-1.0842e-18,0.15,-0.00625,0.999398
-1.0842e-18,0.15,-0.00520833,0.999398
-1.0842e-18,0.15,-0.00416667,0.986955
-1.24683e-18,0.15,-0.00312501,0.986955
-1.40946e-18,0.15,-0.00208334,0.851943
-1.484e-18,0.15,-0.00104167,0.851943
-1.55854e-18,0.15,1.47551e-11,0.33099
-1.484e-18,0.15,0.00104167,0.33099
-1.40946e-18,0.15,0.00208334,0.030753
-1.51788e-18,0.15,0.00312501,0.030753
-1.6263e-18,0.15,0.00416667,0.000690005
-1.57209e-18,0.15,0.00520833,0.000690005
-1.51788e-18,0.15,0.00625,5.41022e-05
-1.60597e-18,0.15,0.00729167,5.41022e-05
-1.69407e-18,0.15,0.00833333,4.7332e-06
-1.87703e-18,0.15,0.00937502,4.7332e-06
-2.05998e-18,0.15,0.0104167,3.64806e-07
-1.78893e-18,0.15,0.0114584,3.64806e-07
-1.51788e-18,0.15,0.0125,2.88658e-08
-1.51788e-18,0.15,0.0135417,2.88658e-08
-1.51788e-18,0.15,0.0145833,2.57694e-09
-1.70762e-18,0.15,0.015625,2.57694e-09
-1.89735e-18,0.15,0.0166667,2.92234e-10
-1.87025e-18,0.15,0.0177083,2.92234e-10
-1.84314e-18,0.15,0.01875,4.81412e-11
-1.95156e-18,0.15,0.0197916,4.81412e-11
-2.05998e-18,0.15,0.0208333,9.26469e-12
-2.11419e-18,0.15,0.021875,9.26469e-12
-2.1684e-18,0.15,0.0229167,1.06304e-12
-2.01933e-18,0.15,0.0239584,1.06304e-12
-1.87025e-18,0.15,0.025,3.14447e-13
-1.80249e-18,0.15,0.0260417,3.14447e-13
-1.73472e-18,0.15,0.0270833,1.35233e-13
-1.6263e-18,0.15,0.028125,1.35233e-13
-1.51788e-18,0.15,0.0291667,5.95157e-14
-1.51788e-18,0.15,0.0302084,5.95157e-14
-1.51788e-18,0.15,0.0312501,2.80356e-14
-1.44334e-18,0.15,0.0322917,2.80356e-14
-1.36881e-18,0.15,0.0333333,1.34902e-14
-1.11808e-18,0.15,0.034375,1.34902e-14
-8.67362e-19,0.15,0.0354166,6.17016e-15
-9.21572e-19,0.15,0.0364583,6.17016e-15
-9.75782e-19,0.15,0.0375,2.60798e-15
-9.21572e-19,0.15,0.0385417,2.60798e-15
-8.67362e-19,0.15,0.0395834,1.02283e-15
-8.67362e-19,0.15,0.0406251,1.02283e-15
-8.67362e-19,0.15,0.0416667,3.7861e-16
-7.04731e-19,0.15,0.0427084,3.7861e-16
-5.42101e-19,0.15,0.04375,1.34838e-16
-5.96311e-19,0.15,0.0447917,1.34838e-16
-6.50521e-19,0.15,0.0458333,4.68044e-17
-5.96311e-19,0.15,0.046875,4.68044e-17
-5.42101e-19,0.15,0.0479166,1.59321e-17
-3.79471e-19,0.15,0.0489583,1.59321e-17
-2.1684e-19,0.15,0.05,5.3073e-18
-2.1684e-19,0.15,0.0510417,5.3073e-18
-2.1684e-19,0.15,0.0520834,1.71619e-18
-2.1684e-19,0.15,0.053125,1.71619e-18
-2.1684e-19,0.15,0.0541667,5.32107e-19
0,0.15,0.0552084,5.32107e-19
2.1684e-19,0.15,0.0562501,1.55991e-19
1.28749e-19,0.15,0.0572917,1.55991e-19
4.06576e-20,0.15,0.0583334,4.27173e-20
1.28749e-19,0.15,0.0593751,4.27173e-20
2.1684e-19,0.15,0.0604168,1.08476e-20
3.25261e-19,0.15,0.0614584,1.08476e-20
4.33681e-19,0.15,0.0625001,2.55241e-21
5.96311e-19,0.15,0.0635418,2.55241e-21
7.58942e-19,0.15,0.0645835,5.59407e-22
8.60585e-19,0.15,0.0656251,5.59407e-22
9.62229e-19,0.15,0.0666668,1.15319e-22
7.52165e-19,0.15,0.0677086,1.15319e-22
5.42101e-19,0.15,0.0687503,2.26286e-23
5.42101e-19,0.15,0.069792,2.26286e-23
5.42101e-19,0.15,0.0708336,4.27637e-24
8.13152e-19,0.15,0.0718754,4.27637e-24
1.0842e-18,0.15,0.0729171,7.82715e-25
1.00966e-18,0.15,0.0739588,7.82715e-25
9.35124e-19,0.15,0.0750004,1.37933e-25
1.05032e-18,0.15,0.0760422,1.37933e-25
-1.6263e-19,0.15,0.077084,2.56532e-26
1.16552e-18,0.15,0.077084,1.37933e-25
-8.13152e-20,0.15,0.0781257,2.56532e-26
0,0.15,0.0791673,7.4495e-27
-1.35525e-19,0.15,0.0812508,7.4495e-27
-2.71051e-19,0.15,0.0833343,2.83609e-26
8.13152e-20,0.15,0.0875018,2.83609e-26
4.33681e-19,0.15,0.0916692,3.05953e-27
-8.13152e-20,0.15,0.0958367,3.05953e-27
-5.96311e-19,0.15,0.100004,1.49933e-25
-8.13152e-20,0.15,0.108342,1.49933e-25
4.33681e-19,0.15,0.11668,1.38409e-26
1.0842e-18,0.15,0.12502,1.38409e-26
1.73472e-18,0.15,0.133359,8.50705e-29
