x,y,z,alpha.water
0,0.125,-0.125,1
4.33681e-19,0.125,-0.120834,1
8.67362e-19,0.125,-0.116667,1
-5.96311e-19,0.125,-0.116667,1
-1.38236e-18,0.125,-0.1125,1
-2.1684e-18,0.125,-0.108333,1
-2.81893e-18,0.125,-0.104167,1
-3.46945e-18,0.125,-0.1,1
-3.17129e-18,0.125,-0.0958334,1
-2.87314e-18,0.125,-0.0916667,1
-2.60277e-18,0.125,-0.0875,1
-2.33241e-18,0.125,-0.0833333,1
-2.34068e-18,0.125,-0.08125,1
-2.34895e-18,0.125,-0.0791667,1
-2.34169e-18,0.125,-0.0781251,1
-2.33442e-18,0.125,-0.0770835,1
-2.33485e-18,0.125,-0.0760417,1
-2.33527e-18,0.125,-0.075,1
-2.33146e-18,0.125,-0.0739583,1
-2.32765e-18,0.125,-0.0729167,1
-2.33395e-18,0.125,-0.071875,1
-2.34025e-18,0.125,-0.0708333,1
-2.33903e-18,0.125,-0.0697917,1
-2.33781e-18,0.125,-0.0687501,1.00001
-2.33583e-18,0.125,-0.0677084,1.00001
-2.33384e-18,0.125,-0.0666667,1.00001
-2.3426e-18,0.125,-0.065625,1.00001
-2.35136e-18,0.125,-0.0645834,1.00001
-2.35367e-18,0.125,-0.0635417,1.00001
-2.35598e-18,0.125,-0.0625,1.00001
-2.35706e-18,0.125,-0.0614583,1.00001
-2.35814e-18,0.125,-0.0604167,1.00001
-2.3521e-18,0.125,-0.059375,1.00001
-2.34607e-18,0.125,-0.0583333,1.00001
-2.3538e-18,0.125,-0.0572916,1.00001
-2.36153e-18,0.125,-0.05625,1.00001
-2.35915e-18,0.125,-0.0552083,1.00001
-2.35678e-18,0.125,-0.0541667,1
-2.35238e-18,0.125,-0.053125,1
-2.34798e-18,0.125,-0.0520833,1
-2.3467e-18,0.125,-0.0510416,1
-2.34543e-18,0.125,-0.05,1
-2.3467e-18,0.125,-0.0489583,1
-2.34798e-18,0.125,-0.0479167,1
-2.35033e-18,0.125,-0.046875,1
-2.35269e-18,0.125,-0.0458333,1
-2.35033e-18,0.125,-0.0447916,1
-2.34798e-18,0.125,-0.04375,1
-2.34624e-18,0.125,-0.0427083,1
-2.34451e-18,0.125,-0.0416667,1
-2.33947e-18,0.125,-0.040625,1
-2.33442e-18,0.125,-0.0395834,1
-2.3417e-18,0.125,-0.0385417,1
-2.34898e-18,0.125,-0.0375,1
-2.34848e-18,0.125,-0.0364583,1
-2.34798e-18,0.125,-0.0354167,1
-2.34345e-18,0.125,-0.034375,1
-2.33892e-18,0.125,-0.0333333,1
-2.33667e-18,0.125,-0.0322916,1
-2.33442e-18,0.125,-0.03125,1
-2.33842e-18,0.125,-0.0302083,1
-2.34243e-18,0.125,-0.0291667,1
-2.34012e-18,0.125,-0.028125,1
-2.33781e-18,0.125,-0.0270833,1
-2.34259e-18,0.125,-0.0260417,1
-2.34737e-18,0.125,-0.025,1
-2.34598e-18,0.125,-0.0239583,1
-2.34459e-18,0.125,-0.0229167,1
-2.3486e-18,0.125,-0.021875,1
-2.35262e-18,0.125,-0.0208333,1
-2.3486e-18,0.125,-0.0197916,1
-2.34459e-18,0.125,-0.01875,1
-2.34595e-18,0.125,-0.0177083,1
-2.34731e-18,0.125,-0.0166667,1
-2.34426e-18,0.125,-0.015625,1
-2.3412e-18,0.125,-0.0145834,0.999999
-2.34689e-18,0.125,-0.0135417,0.999999
-2.35257e-18,0.125,-0.0125,0.999993
-2.34858e-18,0.125,-0.0114583,0.999993
-2.34459e-18,0.125,-0.0104167,0.999933
-2.34459e-18,0.125,-0.00937501,0.999933
-2.34459e-18,0.125,-0.00833333,0.999933
6.77626e-21,0.125,-0.00833333,0.998959
-1.28749e-19,0.125,-0.00729166,0.998959
-2.64274e-19,0.125,-0.00625,0.981121
-2.66645e-19,0.125,-0.00520833,0.981121
-2.69016e-19,0.125,-0.00416667,0.783863
-2.63257e-19,0.125,-0.003125,0.783863
-2.57498e-19,0.125,-0.00208333,0.263246
-2.59483e-19,0.125,-0.00104166,0.263246
-2.61468e-19,0.125,4.39694e-11,0.034376
-2.62871e-19,0.125,0.00104167,0.034376
-2.64274e-19,0.125,0.00208334,0.00300027
-2.68318e-19,0.125,0.003125,0.00300027
-2.72361e-19,0.125,0.00416667,8.60179e-05
-2.68318e-19,0.125,0.00520833,8.60179e-05
-2.64274e-19,0.125,0.00625,4.72212e-06
-2.64552e-19,0.125,0.00729166,4.72212e-06
-2.6483e-19,0.125,0.00833333,8.19057e-07
-2.61164e-19,0.125,0.00937501,8.19057e-07
-2.57498e-19,0.125,0.0104167,1.60821e-07
-2.61545e-19,0.125,0.0114583,1.60821e-07
-2.65591e-19,0.125,0.0125,2.58435e-08
-2.61545e-19,0.125,0.0135417,2.58435e-08
-2.57498e-19,0.125,0.0145834,4.39631e-09
-2.59483e-19,0.125,0.015625,4.39631e-09
-2.61468e-19,0.125,0.0166667,1.55791e-09
-2.61177e-19,0.125,0.0177083,1.55791e-09
-2.60886e-19,0.125,0.01875,1.62366e-09
-2.64933e-19,0.125,0.0197916,1.62366e-09
-2.68979e-19,0.125,0.0208333,2.41942e-09
-2.64933e-19,0.125,0.021875,2.41942e-09
-2.60886e-19,0.125,0.0229167,2.97793e-09
-2.62871e-19,0.125,0.0239583,2.97793e-09
-2.64857e-19,0.125,0.025,2.86767e-09
-2.64565e-19,0.125,0.0260417,2.86767e-09
-2.64274e-19,0.125,0.0270833,2.07864e-09
-2.64274e-19,0.125,0.028125,2.07864e-09
-2.64274e-19,0.125,0.0291667,1.78926e-09
-2.65968e-19,0.125,0.0302083,1.78926e-09
-2.67662e-19,0.125,0.03125,2.16939e-09
-2.76318e-19,0.125,0.0322916,2.16939e-09
-2.84974e-19,0.125,0.0333333,2.957e-09
-2.84788e-19,0.125,0.0343749,2.957e-09
-2.84603e-19,0.125,0.0354166,2.87455e-09
-2.82932e-19,0.125,0.0364583,2.87455e-09
-2.81261e-19,0.125,0.0375,2.12358e-09
-2.74462e-19,0.125,0.0385417,2.12358e-09
-2.67662e-19,0.125,0.0395834,1.65412e-09
-2.70998e-19,0.125,0.040625,1.65412e-09
-2.74333e-19,0.125,0.0416667,1.65945e-09
-2.70998e-19,0.125,0.0427083,1.65945e-09
-2.67662e-19,0.125,0.04375,2.01099e-09
-2.71592e-19,0.125,0.0447917,2.01099e-09
-2.75521e-19,0.125,0.0458334,2.39381e-09
-2.76674e-19,0.125,0.0468751,2.39381e-09
-2.77827e-19,0.125,0.0479168,2.30186e-09
-2.82181e-19,0.125,0.0489584,2.30186e-09
-2.86535e-19,0.125,0.0500001,1.97061e-09
-2.92345e-19,0.125,0.0510418,1.97061e-09
-2.98156e-19,0.125,0.0520835,1.86575e-09
-3.00736e-19,0.125,0.0531251,1.86575e-09
-3.03317e-19,0.125,0.0541668,1.92841e-09
-3.0243e-19,0.125,0.0552085,1.92841e-09
-3.01544e-19,0.125,0.0562502,2.02149e-09
-2.96276e-19,0.125,0.0572919,2.02149e-09
-2.91009e-19,0.125,0.0583335,2.01764e-09
-2.91194e-19,0.125,0.0593752,2.01764e-09
-2.91379e-19,0.125,0.0604169,1.98166e-09
-2.83465e-19,0.125,0.0614586,1.98166e-09
-2.7555e-19,0.125,0.0625003,1.97888e-09
-2.76689e-19,0.125,0.0635421,1.97888e-09
-2.77827e-19,0.125,0.0645839,1.98514e-09
-2.74095e-19,0.125,0.0656255,1.98514e-09
-2.70362e-19,0.125,0.0666672,1.97532e-09
-2.67318e-19,0.125,0.0677089,1.97532e-09
-2.64274e-19,0.125,0.0687507,1.95841e-09
-2.6258e-19,0.125,0.0697924,1.95841e-09
-2.60886e-19,0.125,0.0708341,1.95841e-09
0,0.125,0.0708341,1.94839e-09
-2.37169e-20,0.125,0.071876,1.94839e-09
-4.74338e-20,0.125,0.0729179,1.94449e-09
-4.40987e-20,0.125,0.0739596,1.94449e-09
-4.07635e-20,0.125,0.0750012,1.93851e-09
-4.24046e-20,0.125,0.0760432,1.93851e-09
-4.40457e-20,0.125,0.0770851,1.9298e-09
-4.28281e-20,0.125,0.0781268,1.9298e-09
-4.16105e-20,0.125,0.0791685,1.91991e-09
-4.13458e-20,0.125,0.0812522,1.91991e-09
-4.10811e-20,0.125,0.0833358,1.90302e-09
-2.37381e-19,0.125,0.087505,1.90302e-09
-4.33681e-19,0.125,0.0916743,1.88711e-09
-6.50521e-19,0.125,0.095843,1.88711e-09
-8.67362e-19,0.125,0.100012,1.84416e-09
-8.67362e-19,0.125,0.108362,1.84416e-09
-8.67362e-19,0.125,0.116712,1.81828e-09
-1.13841e-18,0.125,0.125065,1.81828e-09
-1.40946e-18,0.125,0.133419,1.9178e-09
