x,y,z,alpha.water
0,0.125,-0.125,1
0,0.125,-0.120833,1
1.0842e-19,0.125,-0.116667,1
0,0.125,-0.116667,1
1.6263e-19,0.125,-0.1125,1
2.1684e-19,0.125,-0.108333,1
0,0.125,-0.104166,1
-2.1684e-19,0.125,-0.1,1
-5.75982e-20,0.125,-0.0958333,1
1.01644e-19,0.125,-0.0916667,1
1.59242e-19,0.125,-0.0875,1
2.1684e-19,0.125,-0.0833333,1
2.03288e-19,0.125,-0.08125,1
1.89735e-19,0.125,-0.0791667,1
2.03288e-19,0.125,-0.0781251,1
2.1684e-19,0.125,-0.0770835,1
1.6263e-19,0.125,-0.0760418,1
1.0842e-19,0.125,-0.075,1
1.6263e-19,0.125,-0.0739584,1
2.1684e-19,0.125,-0.0729167,1
1.35525e-20,0.125,-0.071875,1
-1.89735e-19,0.125,-0.0708333,1
-1.49078e-19,0.125,-0.0697917,1
-1.0842e-19,0.125,-0.0687501,1
1.0842e-19,0.125,-0.0677084,1
3.25261e-19,0.125,-0.0666667,1
4.33681e-19,0.125,-0.065625,1
5.42101e-19,0.125,-0.0645834,1
5.42101e-19,0.125,-0.0635417,1
5.42101e-19,0.125,-0.0625,1
5.42101e-19,0.125,-0.0614583,1
5.42101e-19,0.125,-0.0604167,1
4.33681e-19,0.125,-0.059375,1
3.25261e-19,0.125,-0.0583333,1
3.25261e-19,0.125,-0.0572916,1
3.25261e-19,0.125,-0.05625,1
5.64124e-19,0.125,-0.0552083,1
8.02987e-19,0.125,-0.0541667,1
7.80964e-19,0.125,-0.053125,1
7.58942e-19,0.125,-0.0520833,1
8.13152e-19,0.125,-0.0510417,1
8.67362e-19,0.125,-0.05,1
8.67362e-19,0.125,-0.0489583,1
8.67362e-19,0.125,-0.0479167,1
7.04731e-19,0.125,-0.046875,1
5.42101e-19,0.125,-0.0458333,1
5.42101e-19,0.125,-0.0447916,1
5.42101e-19,0.125,-0.04375,1
5.42101e-19,0.125,-0.0427083,1
5.42101e-19,0.125,-0.0416667,1
5.96311e-19,0.125,-0.040625,1
6.50521e-19,0.125,-0.0395834,1
6.87791e-19,0.125,-0.0385417,1
7.2506e-19,0.125,-0.0375,1
7.96211e-19,0.125,-0.0364583,1
8.67362e-19,0.125,-0.0354167,1
8.13152e-19,0.125,-0.034375,1
7.58942e-19,0.125,-0.0333333,1
7.04731e-19,0.125,-0.0322916,1
6.50521e-19,0.125,-0.03125,1
6.50521e-19,0.125,-0.0302083,1
6.50521e-19,0.125,-0.0291667,1
6.50521e-19,0.125,-0.028125,1
6.50521e-19,0.125,-0.0270833,1
7.58942e-19,0.125,-0.0260417,1
8.67362e-19,0.125,-0.025,1
8.13152e-19,0.125,-0.0239583,1
7.58942e-19,0.125,-0.0229167,1
8.26704e-19,0.125,-0.021875,1
8.94467e-19,0.125,-0.0208333,1
7.72494e-19,0.125,-0.0197916,1
6.50521e-19,0.125,-0.01875,0.999999
7.58942e-19,0.125,-0.0177083,0.999999
8.67362e-19,0.125,-0.0166667,0.999999
8.67362e-19,0.125,-0.015625,0.999999
8.67362e-19,0.125,-0.0145834,1
8.13152e-19,0.125,-0.0135417,1
7.58942e-19,0.125,-0.0125,1
9.21572e-19,0.125,-0.0114583,1
1.0842e-18,0.125,-0.0104167,0.999999
1.15281e-18,0.125,-0.00937501,0.999999
1.01644e-19,0.125,-0.00833333,0.999988
1.22142e-18,0.125,-0.00833333,0.999999
1.59242e-19,0.125,-0.00729167,0.999988
2.1684e-19,0.125,-0.00625,0.999823
2.21923e-19,0.125,-0.00520833,0.999823
2.27005e-19,0.125,-0.00416667,0.994617
2.21923e-19,0.125,-0.003125,0.994617
2.1684e-19,0.125,-0.00208333,0.883084
2.1684e-19,0.125,-0.00104166,0.883084
2.1684e-19,0.125,4.41412e-11,0.380096
2.1684e-19,0.125,0.00104167,0.380096
2.1684e-19,0.125,0.00208334,0.033713
2.23617e-19,0.125,0.003125,0.033713
2.30393e-19,0.125,0.00416667,0.00112891
2.23617e-19,0.125,0.00520833,0.00112891
2.1684e-19,0.125,0.00625,2.26595e-05
2.1684e-19,0.125,0.00729167,2.26595e-05
2.1684e-19,0.125,0.00833333,2.24627e-06
2.1684e-19,0.125,0.00937502,2.24627e-06
2.1684e-19,0.125,0.0104167,3.86588e-07
1.15196e-19,0.125,0.0114583,3.86588e-07
1.35525e-20,0.125,0.0125,7.20097e-08
6.77626e-21,0.125,0.0135417,7.20097e-08
0,0.125,0.0145834,1.30417e-08
0,0.125,0.0156251,1.30417e-08
0,0.125,0.0166667,2.76132e-09
0,0.125,0.0177083,2.76132e-09
0,0.125,0.01875,1.44965e-09
-5.42101e-20,0.125,0.0197917,1.44965e-09
-1.0842e-19,0.125,0.0208333,1.50598e-09
-1.0842e-19,0.125,0.021875,1.50598e-09
-1.0842e-19,0.125,0.0229167,1.65913e-09
-1.0842e-19,0.125,0.0239584,1.65913e-09
-1.0842e-19,0.125,0.025,1.66374e-09
-1.6263e-19,0.125,0.0260417,1.66374e-09
-2.1684e-19,0.125,0.0270833,1.65829e-09
-2.1684e-19,0.125,0.028125,1.65829e-09
-2.1684e-19,0.125,0.0291667,1.69024e-09
-3.79471e-19,0.125,0.0302084,1.69024e-09
-5.42101e-19,0.125,0.03125,1.73062e-09
-4.33681e-19,0.125,0.0322917,1.73062e-09
-3.25261e-19,0.125,0.0333333,1.7398e-09
-3.25261e-19,0.125,0.034375,1.7398e-09
-3.25261e-19,0.125,0.0354166,1.72426e-09
-4.33681e-19,0.125,0.0364583,1.72426e-09
-5.42101e-19,0.125,0.0375,1.69296e-09
-6.50521e-19,0.125,0.0385417,1.69296e-09
-7.58942e-19,0.125,0.0395834,1.67692e-09
-5.96311e-19,0.125,0.0406251,1.67692e-09
-4.33681e-19,0.125,0.0416667,1.67679e-09
-5.42101e-19,0.125,0.0427084,1.67679e-09
-6.50521e-19,0.125,0.04375,1.68724e-09
-7.01343e-19,0.125,0.0447917,1.68724e-09
-7.52165e-19,0.125,0.0458334,1.69312e-09
-8.63974e-19,0.125,0.0468751,1.69312e-09
-9.75782e-19,0.125,0.0479168,1.69465e-09
-8.67362e-19,0.125,0.0489585,1.69465e-09
-7.58942e-19,0.125,0.0500001,1.68989e-09
-8.13152e-19,0.125,0.0510418,1.68989e-09
-8.67362e-19,0.125,0.0520835,1.68347e-09
-9.21572e-19,0.125,0.0531252,1.68347e-09
-9.75782e-19,0.125,0.0541668,1.67637e-09
-8.67362e-19,0.125,0.0552085,1.67637e-09
-7.58942e-19,0.125,0.0562502,1.66407e-09
-7.58942e-19,0.125,0.0572919,1.66407e-09
-7.58942e-19,0.125,0.0583335,1.64953e-09
-8.13152e-19,0.125,0.0593752,1.64953e-09
-8.67362e-19,0.125,0.0604169,1.63037e-09
-8.09763e-19,0.125,0.0614586,1.63037e-09
-7.52165e-19,0.125,0.0625003,1.6171e-09
-5.92923e-19,0.125,0.0635421,1.6171e-09
-4.33681e-19,0.125,0.0645839,1.63739e-09
-5.96311e-19,0.125,0.0656256,1.63739e-09
-7.58942e-19,0.125,0.0666672,1.82783e-09
-7.58942e-19,0.125,0.0677089,1.82783e-09
-7.58942e-19,0.125,0.0687507,2.0986e-09
-9.21572e-19,0.125,0.0697924,2.0986e-09
-1.0842e-18,0.125,0.0708341,2.25532e-09
-8.91926e-19,0.125,0.071876,2.25532e-09
6.77626e-21,0.125,0.0729179,2.32616e-09
-6.99649e-19,0.125,0.0729179,2.25532e-09
3.38813e-21,0.125,0.0739596,2.32616e-09
0,0.125,0.0750012,2.39786e-09
-2.1684e-19,0.125,0.0760432,2.39786e-09
-4.33681e-19,0.125,0.0770851,2.49506e-09
-4.03188e-19,0.125,0.0781268,2.49506e-09
-3.72694e-19,0.125,0.0791685,2.65837e-09
-3.48978e-19,0.125,0.0812523,2.65837e-09
-3.25261e-19,0.125,0.083336,2.95463e-09
-5.96311e-19,0.125,0.0875051,2.95463e-09
-8.67362e-19,0.125,0.0916743,3.12347e-09
-5.42101e-19,0.125,0.0958429,3.12347e-09
-2.1684e-19,0.125,0.100012,3.23375e-09
-7.58942e-19,0.125,0.108362,3.23375e-09
-1.30104e-18,0.125,0.116713,3.26086e-09
-1.13841e-18,0.125,0.125066,3.26086e-09
-9.75782e-19,0.125,0.133419,3.1526e-09
