x,y,z,alpha.water
0,0.1,-0.125,1
7.72494e-19,0.1,-0.120834,1
1.54499e-18,0.1,-0.116667,1
-4.33681e-19,0.1,-0.116667,1
-1.06726e-19,0.1,-0.1125,1
2.20229e-19,0.1,-0.108333,1
2.18535e-19,0.1,-0.104167,1
2.1684e-19,0.1,-0.1,1
1.33831e-19,0.1,-0.0958334,1
5.0822e-20,0.1,-0.0916667,1
2.42251e-19,0.1,-0.0875,1
4.33681e-19,0.1,-0.0833333,1
3.25261e-19,0.1,-0.08125,1
2.1684e-19,0.1,-0.0791667,1.00001
0,0.1,-0.0781251,1.00001
-2.1684e-19,0.1,-0.0770834,1.00001
-3.25261e-19,0.1,-0.0760417,1.00001
-4.33681e-19,0.1,-0.075,1.00001
-4.33681e-19,0.1,-0.0739583,1.00001
-4.33681e-19,0.1,-0.0729167,1.00001
-4.74338e-19,0.1,-0.071875,1.00001
-5.14996e-19,0.1,-0.0708333,1.00001
-7.99599e-19,0.1,-0.0697917,1.00001
-1.0842e-18,0.1,-0.0687501,1.00001
-8.67362e-19,0.1,-0.0677084,1.00001
-6.50521e-19,0.1,-0.0666667,1.00001
-5.42101e-19,0.1,-0.065625,1.00001
-4.33681e-19,0.1,-0.0645833,1.00001
-2.1684e-19,0.1,-0.0635417,1.00001
0,0.1,-0.0625,1.00001
0,0.1,-0.0614584,1.00001
0,0.1,-0.0604167,1.00001
0,0.1,-0.059375,1.00001
0,0.1,-0.0583333,1.00001
1.0842e-19,0.1,-0.0572916,1.00001
2.1684e-19,0.1,-0.05625,1.00001
2.09535e-19,0.1,-0.0552083,1.00001
2.02229e-19,0.1,-0.0541667,1.00001
3.17955e-19,0.1,-0.053125,1.00001
4.33681e-19,0.1,-0.0520834,1.00001
4.33681e-19,0.1,-0.0510417,1.00001
4.33681e-19,0.1,-0.05,1.00001
3.25261e-19,0.1,-0.0489583,1.00001
2.1684e-19,0.1,-0.0479166,1.00001
-1.0842e-19,0.1,-0.046875,1.00001
-4.33681e-19,0.1,-0.0458333,1.00001
-5.42101e-19,0.1,-0.0447916,1.00001
-6.50521e-19,0.1,-0.04375,1
-5.42101e-19,0.1,-0.0427083,1
-4.33681e-19,0.1,-0.0416667,1
-3.25261e-19,0.1,-0.040625,1
-2.1684e-19,0.1,-0.0395833,1
-3.81059e-19,0.1,-0.0385417,1
-5.45277e-19,0.1,-0.0375,1
-4.89479e-19,0.1,-0.0364583,1
-4.33681e-19,0.1,-0.0354166,1
-4.33681e-19,0.1,-0.034375,1
-4.33681e-19,0.1,-0.0333333,1
-4.33681e-19,0.1,-0.0322916,1
-4.33681e-19,0.1,-0.03125,1
-3.25261e-19,0.1,-0.0302083,1
-2.1684e-19,0.1,-0.0291667,1
-3.25261e-19,0.1,-0.028125,1
-4.33681e-19,0.1,-0.0270833,1
-4.33681e-19,0.1,-0.0260416,1
-4.33681e-19,0.1,-0.025,1
-3.25261e-19,0.1,-0.0239583,1
-2.1684e-19,0.1,-0.0229167,1
-4.04458e-20,0.1,-0.021875,1
1.35949e-19,0.1,-0.0208333,1
1.76395e-19,0.1,-0.0197916,1
2.1684e-19,0.1,-0.01875,1
2.1684e-19,0.1,-0.0177083,1
2.1684e-19,0.1,-0.0166667,0.999998
2.1684e-19,0.1,-0.015625,0.999998
2.1684e-19,0.1,-0.0145834,0.999983
3.25261e-19,0.1,-0.0135417,0.999983
4.33681e-19,0.1,-0.0125,0.99989
2.87991e-19,0.1,-0.0114583,0.99989
1.42302e-19,0.1,-0.0104167,0.99989
4.95091e-19,0.1,-0.0104167,0.999251
4.64386e-19,0.1,-0.00937501,0.999251
4.33681e-19,0.1,-0.00833333,0.989693
3.25261e-19,0.1,-0.00729166,0.989693
2.1684e-19,0.1,-0.00625,0.840466
2.29917e-19,0.1,-0.00520833,0.840466
2.42993e-19,0.1,-0.00416667,0.311936
2.29917e-19,0.1,-0.003125,0.311936
2.1684e-19,0.1,-0.00208333,0.0288232
3.25261e-19,0.1,-0.00104166,0.0288232
4.33681e-19,0.1,8.13124e-11,0.00143721
4.33681e-19,0.1,0.00104167,0.00143721
4.33681e-19,0.1,0.00208334,5.65401e-05
3.25261e-19,0.1,0.003125,5.65401e-05
2.1684e-19,0.1,0.00416667,2.32103e-06
2.1684e-19,0.1,0.00520833,2.32103e-06
2.1684e-19,0.1,0.00625,1.98017e-07
1.0842e-19,0.1,0.00729166,1.98017e-07
0,0.1,0.00833333,4.38045e-08
0,0.1,0.00937501,4.38045e-08
0,0.1,0.0104167,1.30889e-08
1.3182e-20,0.1,0.0114583,1.30889e-08
2.63639e-20,0.1,0.0125,3.74411e-09
1.21602e-19,0.1,0.0135417,3.74411e-09
2.1684e-19,0.1,0.0145834,1.4028e-09
2.1684e-19,0.1,0.015625,1.4028e-09
2.1684e-19,0.1,0.0166667,1.05973e-09
2.1684e-19,0.1,0.0177083,1.05973e-09
2.1684e-19,0.1,0.01875,1.07055e-09
2.1684e-19,0.1,0.0197916,1.07055e-09
2.1684e-19,0.1,0.0208333,1.09677e-09
0,0.1,0.021875,1.09677e-09
-2.1684e-19,0.1,0.0229167,1.5438e-09
-2.1684e-19,0.1,0.0239583,1.5438e-09
-2.1684e-19,0.1,0.025,2.77184e-09
-2.1684e-19,0.1,0.0260416,2.77184e-09
-2.1684e-19,0.1,0.0270833,3.79175e-09
-1.28537e-19,0.1,0.028125,3.79175e-09
-4.02341e-20,0.1,0.0291667,3.94788e-09
-1.28537e-19,0.1,0.0302083,3.94788e-09
-2.1684e-19,0.1,0.03125,3.3258e-09
-3.25261e-19,0.1,0.0322916,3.3258e-09
-4.33681e-19,0.1,0.0333333,2.16492e-09
-4.33681e-19,0.1,0.034375,2.16492e-09
-4.33681e-19,0.1,0.0354166,1.97594e-09
-5.42101e-19,0.1,0.0364583,1.97594e-09
-6.50521e-19,0.1,0.0375,1.9765e-09
-4.33681e-19,0.1,0.0385416,1.9765e-09
-2.1684e-19,0.1,0.0395833,2.04301e-09
-2.1684e-19,0.1,0.040625,2.04301e-09
-2.1684e-19,0.1,0.0416667,2.32889e-09
-2.1684e-19,0.1,0.0427084,2.32889e-09
-2.1684e-19,0.1,0.0437501,2.41482e-09
-3.81377e-19,0.1,0.0447917,2.41482e-09
-5.45913e-19,0.1,0.0458334,2.34046e-09
-4.89797e-19,0.1,0.0468751,2.34046e-09
-4.33681e-19,0.1,0.0479168,2.27886e-09
-4.33681e-19,0.1,0.0489584,2.27886e-09
-4.33681e-19,0.1,0.0500001,2.30648e-09
-3.25261e-19,0.1,0.0510418,2.30648e-09
-2.1684e-19,0.1,0.0520834,2.40675e-09
-2.1684e-19,0.1,0.0531252,2.40675e-09
-2.1684e-19,0.1,0.0541669,2.41875e-09
-1.0842e-19,0.1,0.0552086,2.41875e-09
0,0.1,0.0562503,2.33227e-09
0,0.1,0.057292,2.33227e-09
0,0.1,0.0583337,2.31547e-09
-1.0842e-19,0.1,0.0593754,2.31547e-09
-2.1684e-19,0.1,0.0604172,2.31604e-09
-3.17426e-19,0.1,0.0614589,2.31604e-09
-4.18011e-19,0.1,0.0625006,2.31967e-09
-4.25846e-19,0.1,0.0635424,2.31967e-09
-4.33681e-19,0.1,0.0645841,2.34802e-09
-4.33681e-19,0.1,0.0656259,2.34802e-09
-4.33681e-19,0.1,0.0666676,2.50906e-09
-3.25261e-19,0.1,0.0677095,2.50906e-09
-2.1684e-19,0.1,0.0687513,2.57898e-09
-3.25261e-19,0.1,0.0697931,2.57898e-09
-4.33681e-19,0.1,0.0708348,2.58226e-09
-5.42101e-19,0.1,0.0718767,2.58226e-09
-6.50521e-19,0.1,0.0729186,2.57783e-09
-7.58942e-19,0.1,0.0739604,2.57783e-09
-8.67362e-19,0.1,0.0750022,2.67505e-09
-7.58942e-19,0.1,0.0760443,2.67505e-09
-6.50521e-19,0.1,0.0770863,2.79138e-09
-7.3946e-19,0.1,0.0781282,2.79138e-09
-8.28398e-19,0.1,0.0791701,2.87634e-09
-7.3946e-19,0.1,0.0812545,2.87634e-09
-6.50521e-19,0.1,0.0833388,2.99093e-09
-6.50521e-19,0.1,0.0875102,2.99093e-09
-6.50521e-19,0.1,0.0916815,2.99093e-09
-6.43745e-19,0.1,0.0916815,2.99294e-09
-9.72394e-19,0.1,0.0958551,2.99294e-09
-1.30104e-18,0.1,0.100029,3.00375e-09
-1.0842e-18,0.1,0.108387,3.00375e-09
-8.67362e-19,0.1,0.116745,2.87602e-09
-1.06557e-18,0.1,0.12511,2.87602e-09
-1.26377e-18,0.1,0.133475,3.05423e-09
